<?xml version="1.0"?>
<VTKFile type="UnstructuredGrid"  version="0.1"  >
<UnstructuredGrid>
<Piece  NumberOfPoints="651" NumberOfCells="1200">
<Points>
<DataArray  type="Float64"  NumberOfComponents="3"  format="ascii">0 0 0  50000 0 0  100000 0 0  150000 0 0  200000 0 0  250000 0 0  300000 0 0  350000 0 0  400000 0 0  450000 0 0  500000 0 0  550000 0 0  600000 0 0  650000 0 0  700000 0 0  750000 0 0  800000 0 0  850000 0 0  900000 0 0  950000 0 0  1000000 0 0  0 50000 0  50000 50000 0  100000 50000 0  150000 50000 0  200000 50000 0  250000 50000 0  300000 50000 0  350000 50000 0  400000 50000 0  450000 50000 0  500000 50000 0  550000 50000 0  600000 50000 0  650000 50000 0  700000 50000 0  750000 50000 0  800000 50000 0  850000 50000 0  900000 50000 0  950000 50000 0  1000000 50000 0  0 100000 0  50000 100000 0  100000 100000 0  150000 100000 0  200000 100000 0  250000 100000 0  300000 100000 0  350000 100000 0  400000 100000 0  450000 100000 0  500000 100000 0  550000 100000 0  600000 100000 0  650000 100000 0  700000 100000 0  750000 100000 0  800000 100000 0  850000 100000 0  900000 100000 0  950000 100000 0  1000000 100000 0  0 150000 0  50000 150000 0  100000 150000 0  150000 150000 0  200000 150000 0  250000 150000 0  300000 150000 0  350000 150000 0  400000 150000 0  450000 150000 0  500000 150000 0  550000 150000 0  600000 150000 0  650000 150000 0  700000 150000 0  750000 150000 0  800000 150000 0  850000 150000 0  900000 150000 0  950000 150000 0  1000000 150000 0  0 200000 0  50000 200000 0  100000 200000 0  150000 200000 0  200000 200000 0  250000 200000 0  300000 200000 0  350000 200000 0  400000 200000 0  450000 200000 0  500000 200000 0  550000 200000 0  600000 200000 0  650000 200000 0  700000 200000 0  750000 200000 0  800000 200000 0  850000 200000 0  900000 200000 0  950000 200000 0  1000000 200000 0  0 250000 0  50000 250000 0  100000 250000 0  150000 250000 0  200000 250000 0  250000 250000 0  300000 250000 0  350000 250000 0  400000 250000 0  450000 250000 0  500000 250000 0  550000 250000 0  600000 250000 0  650000 250000 0  700000 250000 0  750000 250000 0  800000 250000 0  850000 250000 0  900000 250000 0  950000 250000 0  1000000 250000 0  0 300000 0  50000 300000 0  100000 300000 0  150000 300000 0  200000 300000 0  250000 300000 0  300000 300000 0  350000 300000 0  400000 300000 0  450000 300000 0  500000 300000 0  550000 300000 0  600000 300000 0  650000 300000 0  700000 300000 0  750000 300000 0  800000 300000 0  850000 300000 0  900000 300000 0  950000 300000 0  1000000 300000 0  0 350000 0  50000 350000 0  100000 350000 0  150000 350000 0  200000 350000 0  250000 350000 0  300000 350000 0  350000 350000 0  400000 350000 0  450000 350000 0  500000 350000 0  550000 350000 0  600000 350000 0  650000 350000 0  700000 350000 0  750000 350000 0  800000 350000 0  850000 350000 0  900000 350000 0  950000 350000 0  1000000 350000 0  0 400000 0  50000 400000 0  100000 400000 0  150000 400000 0  200000 400000 0  250000 400000 0  300000 400000 0  350000 400000 0  400000 400000 0  450000 400000 0  500000 400000 0  550000 400000 0  600000 400000 0  650000 400000 0  700000 400000 0  750000 400000 0  800000 400000 0  850000 400000 0  900000 400000 0  950000 400000 0  1000000 400000 0  0 450000 0  50000 450000 0  100000 450000 0  150000 450000 0  200000 450000 0  250000 450000 0  300000 450000 0  350000 450000 0  400000 450000 0  450000 450000 0  500000 450000 0  550000 450000 0  600000 450000 0  650000 450000 0  700000 450000 0  750000 450000 0  800000 450000 0  850000 450000 0  900000 450000 0  950000 450000 0  1000000 450000 0  0 500000 0  50000 500000 0  100000 500000 0  150000 500000 0  200000 500000 0  250000 500000 0  300000 500000 0  350000 500000 0  400000 500000 0  450000 500000 0  500000 500000 0  550000 500000 0  600000 500000 0  650000 500000 0  700000 500000 0  750000 500000 0  800000 500000 0  850000 500000 0  900000 500000 0  950000 500000 0  1000000 500000 0  0 550000 0  50000 550000 0  100000 550000 0  150000 550000 0  200000 550000 0  250000 550000 0  300000 550000 0  350000 550000 0  400000 550000 0  450000 550000 0  500000 550000 0  550000 550000 0  600000 550000 0  650000 550000 0  700000 550000 0  750000 550000 0  800000 550000 0  850000 550000 0  900000 550000 0  950000 550000 0  1000000 550000 0  0 600000 0  50000 600000 0  100000 600000 0  150000 600000 0  200000 600000 0  250000 600000 0  300000 600000 0  350000 600000 0  400000 600000 0  450000 600000 0  500000 600000 0  550000 600000 0  600000 600000 0  650000 600000 0  700000 600000 0  750000 600000 0  800000 600000 0  850000 600000 0  900000 600000 0  950000 600000 0  1000000 600000 0  0 650000 0  50000 650000 0  100000 650000 0  150000 650000 0  200000 650000 0  250000 650000 0  300000 650000 0  350000 650000 0  400000 650000 0  450000 650000 0  500000 650000 0  550000 650000 0  600000 650000 0  650000 650000 0  700000 650000 0  750000 650000 0  800000 650000 0  850000 650000 0  900000 650000 0  950000 650000 0  1000000 650000 0  0 700000 0  50000 700000 0  100000 700000 0  150000 700000 0  200000 700000 0  250000 700000 0  300000 700000 0  350000 700000 0  400000 700000 0  450000 700000 0  500000 700000 0  550000 700000 0  600000 700000 0  650000 700000 0  700000 700000 0  750000 700000 0  800000 700000 0  850000 700000 0  900000 700000 0  950000 700000 0  1000000 700000 0  0 750000 0  50000 750000 0  100000 750000 0  150000 750000 0  200000 750000 0  250000 750000 0  300000 750000 0  350000 750000 0  400000 750000 0  450000 750000 0  500000 750000 0  550000 750000 0  600000 750000 0  650000 750000 0  700000 750000 0  750000 750000 0  800000 750000 0  850000 750000 0  900000 750000 0  950000 750000 0  1000000 750000 0  0 800000 0  50000 800000 0  100000 800000 0  150000 800000 0  200000 800000 0  250000 800000 0  300000 800000 0  350000 800000 0  400000 800000 0  450000 800000 0  500000 800000 0  550000 800000 0  600000 800000 0  650000 800000 0  700000 800000 0  750000 800000 0  800000 800000 0  850000 800000 0  900000 800000 0  950000 800000 0  1000000 800000 0  0 850000 0  50000 850000 0  100000 850000 0  150000 850000 0  200000 850000 0  250000 850000 0  300000 850000 0  350000 850000 0  400000 850000 0  450000 850000 0  500000 850000 0  550000 850000 0  600000 850000 0  650000 850000 0  700000 850000 0  750000 850000 0  800000 850000 0  850000 850000 0  900000 850000 0  950000 850000 0  1000000 850000 0  0 900000 0  50000 900000 0  100000 900000 0  150000 900000 0  200000 900000 0  250000 900000 0  300000 900000 0  350000 900000 0  400000 900000 0  450000 900000 0  500000 900000 0  550000 900000 0  600000 900000 0  650000 900000 0  700000 900000 0  750000 900000 0  800000 900000 0  850000 900000 0  900000 900000 0  950000 900000 0  1000000 900000 0  0 950000 0  50000 950000 0  100000 950000 0  150000 950000 0  200000 950000 0  250000 950000 0  300000 950000 0  350000 950000 0  400000 950000 0  450000 950000 0  500000 950000 0  550000 950000 0  600000 950000 0  650000 950000 0  700000 950000 0  750000 950000 0  800000 950000 0  850000 950000 0  900000 950000 0  950000 950000 0  1000000 950000 0  0 1000000 0  50000 1000000 0  100000 1000000 0  150000 1000000 0  200000 1000000 0  250000 1000000 0  300000 1000000 0  350000 1000000 0  400000 1000000 0  450000 1000000 0  500000 1000000 0  550000 1000000 0  600000 1000000 0  650000 1000000 0  700000 1000000 0  750000 1000000 0  800000 1000000 0  850000 1000000 0  900000 1000000 0  950000 1000000 0  1000000 1000000 0  0 1050000 0  50000 1050000 0  100000 1050000 0  150000 1050000 0  200000 1050000 0  250000 1050000 0  300000 1050000 0  350000 1050000 0  400000 1050000 0  450000 1050000 0  500000 1050000 0  550000 1050000 0  600000 1050000 0  650000 1050000 0  700000 1050000 0  750000 1050000 0  800000 1050000 0  850000 1050000 0  900000 1050000 0  950000 1050000 0  1000000 1050000 0  0 1100000 0  50000 1100000 0  100000 1100000 0  150000 1100000 0  200000 1100000 0  250000 1100000 0  300000 1100000 0  350000 1100000 0  400000 1100000 0  450000 1100000 0  500000 1100000 0  550000 1100000 0  600000 1100000 0  650000 1100000 0  700000 1100000 0  750000 1100000 0  800000 1100000 0  850000 1100000 0  900000 1100000 0  950000 1100000 0  1000000 1100000 0  0 1150000 0  50000 1150000 0  100000 1150000 0  150000 1150000 0  200000 1150000 0  250000 1150000 0  300000 1150000 0  350000 1150000 0  400000 1150000 0  450000 1150000 0  500000 1150000 0  550000 1150000 0  600000 1150000 0  650000 1150000 0  700000 1150000 0  750000 1150000 0  800000 1150000 0  850000 1150000 0  900000 1150000 0  950000 1150000 0  1000000 1150000 0  0 1200000 0  50000 1200000 0  100000 1200000 0  150000 1200000 0  200000 1200000 0  250000 1200000 0  300000 1200000 0  350000 1200000 0  400000 1200000 0  450000 1200000 0  500000 1200000 0  550000 1200000 0  600000 1200000 0  650000 1200000 0  700000 1200000 0  750000 1200000 0  800000 1200000 0  850000 1200000 0  900000 1200000 0  950000 1200000 0  1000000 1200000 0  0 1250000 0  50000 1250000 0  100000 1250000 0  150000 1250000 0  200000 1250000 0  250000 1250000 0  300000 1250000 0  350000 1250000 0  400000 1250000 0  450000 1250000 0  500000 1250000 0  550000 1250000 0  600000 1250000 0  650000 1250000 0  700000 1250000 0  750000 1250000 0  800000 1250000 0  850000 1250000 0  900000 1250000 0  950000 1250000 0  1000000 1250000 0  0 1300000 0  50000 1300000 0  100000 1300000 0  150000 1300000 0  200000 1300000 0  250000 1300000 0  300000 1300000 0  350000 1300000 0  400000 1300000 0  450000 1300000 0  500000 1300000 0  550000 1300000 0  600000 1300000 0  650000 1300000 0  700000 1300000 0  750000 1300000 0  800000 1300000 0  850000 1300000 0  900000 1300000 0  950000 1300000 0  1000000 1300000 0  0 1350000 0  50000 1350000 0  100000 1350000 0  150000 1350000 0  200000 1350000 0  250000 1350000 0  300000 1350000 0  350000 1350000 0  400000 1350000 0  450000 1350000 0  500000 1350000 0  550000 1350000 0  600000 1350000 0  650000 1350000 0  700000 135
[...]
<PointData  Scalars="f_25027"> 
<DataArray  type="Float64"  Name="f_25027"  format="ascii">-2.5485717934962704e-04  1.8434895995634576e-04  2.0842824460617546e-04  2.4808871522343916e-04  2.7655743824656569e-04  2.9824817154499434e-04  3.1681080307218823e-04  3.3332431362341562e-04  3.4854802086870039e-04  3.6301419662634822e-04  3.7712703811028711e-04  3.9123956081031815e-04  4.0570447002124719e-04  4.2092592301968239e-04  4.3744385262264429e-04  4.5598295799049023e-04  4.7746429692402430e-04  5.0788700305181189e-04  5.4329908286948787e-04  5.2456201821153938e-04  1.7803606898648325e-03  1.5321435255044810e-04  1.8530930287461001e-04  2.0744886999282347e-04  2.5208047042591194e-04  2.7756007898437708e-04  2.9889889123668869e-04  3.1723696354886579e-04  3.3358753118622352e-04  3.4870625082078391e-04  3.6309334809795588e-04  3.7713837550403927e-04  3.9118461277683073e-04  4.0557574677752706e-04  4.2070451788378576e-04  4.3707192600427221e-04  4.5539024976725567e-04  4.7700556997941275e-04  5.0349304520032670e-04  5.3498965028120577e-04  6.3124031275245797e-04  5.4600914479010772e-04  2.0891317591002561e-04  2.0927596959195515e-04  2.3822169464965049e-04  2.6337339178258940e-04  2.8355179667518843e-04  3.0271053540608311e-04  3.1963094662357044e-04  3.3510620030174513e-04  3.4961860503602313e-04  3.6353489401518685e-04  3.7716941755510243e-04  3.9080905616050180e-04  4.0474205022789425e-04  4.1928785254346487e-04  4.3483343705668167e-04  4.5188861886803864e-04  4.7107627278782690e-04  4.9305556107689615e-04  5.2085138184299246e-04  5.3769903721364220e-04  5.4458010059443731e-04  2.4471152397557852e-04  2.4813714041986877e-04  2.6112917650605226e-04  2.7589792935903585e-04  2.9250867225463810e-04  3.0848460299946089e-04  3.2341010407750637e-04  3.3756462137693200e-04  3.5110688572099027e-04  3.6424612754901761e-04  3.7719021126108291e-04  3.9014126861725950e-04  4.0330315278519756e-04  4.1688887327267588e-04  4.3112305375746224e-04  4.4622140331244156e-04  4.6231747036943168e-04  4.7932316131947132e-04  4.9523733539534414e-04  5.0692080053900185e-04  5.1131031020428138e-04  2.7026058481825494e-04  2.7158895612196314e-04  2.7880189617828893e-04  2.8966465802601700e-04  3.0225854078403362e-04  3.1515432115986368e-04  3.2801852881283907e-04  3.4064270967529455e-04  3.5299787211346014e-04  3.6515254868183265e-04  3.7720470590837588e-04  3.8926429380431714e-04  4.0144275298904856e-04  4.1384226286054473e-04  4.2653524534705888e-04  4.3951858901310182e-04  4.5261373158194003e-04  4.6520992085862949e-04  4.7602283566897102e-04  4.8310301881843718e-04  4.8382598453886608e-04  2.8838436664333525e-04  2.8922016364111533e-04  2.9412862541101210e-04  3.0190217216258161e-04  3.1144983108075407e-04  3.2195902734008806e-04  3.3291059535275815e-04  3.4399753040583901e-04  3.5509512607693301e-04  3.6616473537787268e-04  3.7721341853114924e-04  3.8826866769803390e-04  3.9935863911849082e-04  4.1049243990787243e-04  4.2163221875533179e-04  4.3264695132955215e-04  4.4323479178537726e-04  4.5282339046797895e-04  4.6051538446890435e-04  4.6515224220067009e-04  4.6592287774675225e-04  3.0233402306207717e-04  3.0293691582402292e-04  3.0645436980488870e-04  3.1226247543828184e-04  3.1976973454165100e-04  3.2839101193905091e-04  3.3768286239642989e-04  3.4735409578276244e-04  3.5722759737989040e-04  3.6720040540928295e-04  3.7721504721427510e-04  3.8723473559442714e-04  3.9722267117929034e-04  4.0712113592565320e-04  4.1682587538462650e-04  4.2615221564612846e-04  4.3479418666028896e-04  4.4229253204778999e-04  4.4804296927135101e-04  4.5141599851739348e-04  4.5196397218521633e-04  3.1330205935658058e-04  3.1374983563526204e-04  3.1642354792437447e-04  3.2096505707986659e-04  3.2701458247596284e-04  3.3416972468013544e-04  3.4209237486749648e-04  3.5052167897629713e-04  3.5926816646119432e-04  3.6819766516125920e-04  3.7721181326030547e-04  3.8622937189519393e-04  3.9516877359576974e-04  4.0393039403154198e-04  4.1237725540999286e-04  4.2031441135153994e-04  4.2747124578518502e-04  4.3349776112359967e-04  4.3799132912996042e-04  4.4057444426125506e-04  4.4098037661374756e-04  3.2201533632019336e-04  3.2236653890993570e-04  3.2449294285595288e-04  3.2816730338619131e-04  3.3316029995185159e-04  3.3919338170546184e-04  3.4600799701146195e-04  3.5338115440545841e-04  3.6113140872218489e-04  3.6911300517888609e-04  3.7720505779586204e-04  3.8529913043512258e-04  3.9328636986009325e-04  4.0104450382222665e-04  4.0842509495068476e-04  4.1524256204560257e-04  4.2126862508837232e-04  4.2623868234626408e-04  4.2987557878142293e-04  4.3193885413476046e-04  4.3226295090062678e-04  3.2894948315508087e-04  3.2923617168408476e-04  3.3098782552514139e-04  3.3404981170561261e-04  3.3826817116922682e-04  3.4344250237832374e-04  3.4937216401975733e-04  3.5586938422294066e-04  3.6276738600035012e-04  3.6991990291394648e-04  3.7719615680897569e-04  3.8447342086162580e-04  3.9162859029026153e-04  3.9852971865537610e-04  4.0502852111791530e-04  4.1095543654216034e-04  4.1611971491399146e-04  4.2031785781019502e-04  4.2335114943799283e-04  4.2505807887910807e-04  4.2532583077185501e-04  3.3442291719177730e-04  3.3466457833397037e-04  3.3615214717515671e-04  3.3877364932823105e-04  3.4241947197386635e-04  3.4693896156045271e-04  3.5217235839605973e-04  3.5796029462756675e-04  3.6415142258079984e-04  3.7060436703642802e-04  3.7718612724868929e-04  3.8376825257319434e-04  3.9022200278149489e-04  3.9641351702987473e-04  4.0220004239866506e-04  4.0742849902400944e-04  4.1193786098468277e-04  4.1556695393880379e-04  4.1816668516540567e-04  4.1962213252705951e-04  4.1985023411468195e-04  3.3865763684270609e-04  3.3886743876256124e-04  3.4016696854753437e-04  3.4247045746528505e-04  3.4569501886599978e-04  3.4972190191761860e-04  3.5441945298132500e-04  3.5964973954712994e-04  3.6527505045696454e-04  3.7116075307509912e-04  3.7717563920375204e-04  3.8319053492140149e-04  3.8907606614028685e-04  3.9470044537622066e-04  3.9992815722458331e-04  4.0462045645128970e-04  4.0863851037073982e-04  4.1184995320756989e-04  4.1413727861674781e-04  4.1541382905852236e-04  4.1561399056758868e-04  3.4181056980606578e-04  3.4199800854834068e-04  3.4316535587195689e-04  3.4524344345888909e-04  3.4816558125165195e-04  3.5183335490984345e-04  3.5613392770813163e-04  3.6094472797763697e-04  3.6613887608532761e-04  3.7158828546018306e-04  3.7716507542607993e-04  3.8274172477269642e-04  3.8819058465893965e-04  3.9338341162616682e-04  3.9819158509660831e-04  4.0248763141102122e-04  4.0614850362556291e-04  4.0906101035173103e-04  4.1112764136608487e-04  4.1227910451237086e-04  4.1245991180806569e-04  3.4399119099318533e-04  3.4416359753290107e-04  3.4524263455334222e-04  3.4716971644264933e-04  3.4988765502843303e-04  3.5331054634891540e-04  3.5733750956099902e-04  3.6185621019714514e-04  3.6674749390442252e-04  3.7188849478200320e-04  3.7715460918332123e-04  3.8242056609035429e-04  3.8756102087100487e-04  3.9245116316354256e-04  3.9696782998046193e-04  4.0099154854977441e-04  4.0440974723303174e-04  4.0712137599697876e-04  4.0904111517155644e-04  4.1011013514724121e-04  4.1027837270975361e-04  3.4527191257816974e-04  3.4543535626475739e-04  3.4646293225911888e-04  3.4830254556470554e-04  3.5090188313968408e-04  3.5418187285368643e-04  3.5804825157128304e-04  3.6239452359918553e-04  3.6710612270515617e-04  3.7206348147034521e-04  3.7714427516601887e-04  3.8222497236709528e-04  3.8718200834701125e-04  3.9189296553129193e-04  3.9623814498135335e-04  4.0010284277075791e-04  4.0338046577293260e-04  4.0597668339093954e-04  4.0781270959060206e-04  4.0883543611735634e-04  4.0899686513488882e-04  3.4569409662602940e-04  3.4585396622753670e-04  3.4686319356225654e-04  3.4867307886730508e-04  3.5123257225966987e-04  3.5446485964338309e-04  3.5827777828161737e-04  3.6256670307646308e-04  3.6721854967281361e-04  3.7211483814570019e-04  3.7713402608817058e-04  3.8215321403064790e-04  3.8704950250355579e-04  3.9170134909993960e-04  3.9599027389482683e-04  3.9980319253310839e-04  4.0303547991686845e-04  4.0559497330927531e-04  4.0740485861435609e-04  4.0841408594909491e-04  4.0857395555060578e-04  3.4527118704173916e-04  3.4543261605926784e-04  3.4645534258600304e-04  3.4829136878563265e-04  3.5088758640359731e-04  3.5416520940572451e-04  3.5802990719508202e-04  3.6237508664510159e-04  3.6708604382934887e-04  3.7204307980924452e-04  3.7712377701031496e-04  3.8220457070599746e-04  3.8716192947120970e-04  3.9187352857721563e-04  3.9621980060516296e-04  4.0008617932280960e-04  4.0336616903686247e-04  4.0596550661188584e-04  4.0780511991750753e-04  4.0883269591188929e-04  4.0899613959848122e-04  3.4398967946687421e-04  3.4415791702938325e-04  3.4522693700504676e-04  3.4714667617958867e-04  3.4985830494348912e-04  3.5327650362669484e-04  3.5730022219595631e-04  3.6181688901283025e-04  3.6670703130533319e-04  3.7184748608596279e-04  3.7711344299299016e-04  3.8237955739431882e-04  3.8752055827192606e-04  3.9241184197924371e-04  3.9693054261544095e-04  4.0095750582758161e-04  4.0438039714812144e-04  4.0709833573395680e-04  4.0902541762330463e-04  4.1010445464376974e-04  4.1027686118348992e-04  3.4180814036857237e-04  3.4198894766426243e-04  3.4314041081052354e-04  3.4520704182483449e-04  3.4811954855094819e-04  3.5178042076542955e-04  3.5607646707978374e-04  3.6088464055017351e-04  3.6607746751736149e-04  3.7152632740358098e-04  3.7710297675019210e-04  3.8267976671610220e-04  3.8812917609098887e-04  3.9332332419872668e-04  3.9813412446829263e-04  4.0243469726664884e-04  4.0610247092490989e-04  4.0902460871773645e-04  4.1110269630471814e-04  4.1227004362836428e-04  4.1245748237064503e-04  3.3865406160906965e-04  3.3885422311813034e-04  3.4013077355987340e-04  3.4241809896899753e-04  3.4562954180575940e-04  3.4964759572513548e-04  3.5433989495177074e-04  3.5956760680007133e-04  3.6519198603595884e-04  3.7107751725481682e-04  3.7709241297246004e-04  3.8310729910112878e-04  3.8899300171930067e-04  3.9461831262919235e-04  3.9984859919507074e-04  4.0454615025886165e-04  4.0857303331056852e-04  4.1179759471136413e-04  4.1410108362917926e-04  4.1540061341419163e-04  4.1561041533405422e-04  3.3441781806201173e-04  3.3464591964962669e-04  3.3610136701123857e-04  3.3870109823776911e-04  3.4233019119180150e-04  3.4683955315237990e-04  3.5206800977763490e-04  3.5785453514634922e-04  3.6404604939467290e-04  3.7049979960294033e-04  3.7708192492743789e-04  3.8366368513971771e-04  3.9011662959539066e-04  3.9630775754869330e-04  4.0209569378029135e-04  4.0732909061600542e-04  4.1184858020270519e-04  4.1549440284844777e-04  4.1811590500160923e-04  4.1960347384284924e-04  4.1984513498505272e-04  3.2894222140489424e-04  3.2920997329763103e-04  3.3091690273868751e-04  3.3395019436638736e-04  3.3814833726247075e-04  3.4331261563417739e-04  3.4923953105830822e-04  3.5573833352075314e-04  3.6263946188579941e-04  3.6979463131439551e-04  3.7707189536703587e-04  3.8434814926208643e-04  3.9150066617573548e-04  3.9839866795322881e-04  4.0489588815652495e-04  4.1082554979809472e-04  4.1599988100734109e-04  4.2021824047110178e-04  4.2328022665169508e-04  4.2503188049282820e-04  4.2531856902184689e-04  3.2200510127620741e-04  3.2232919804205904e-04  3.2439247339531119e-04  3.2802936983032942e-04  3.3299942708805486e-04  3.3902549013065922e-04  3.4584295722543088e-04  3.5322354835377309e-04  3.6098168231582468e-04  3.6896892174074803e-04  3.7706299437999648e-04  3.8515504699699585e-04  3.9313664345375733e-04  4.0088689777058209e-04  4.0826005516471614e-04  4.1507467047088951e-04  4.2110775222469865e-04  4.2610074879056325e-04  4.2977510932097818e-04  4.3190151326710964e-04  4.3225271585687399e-04  3.1328767556321429e-04  3.1369360791568755e-04  3.1627672304685020e-04  3.2077029105300191e-04  3.2679680639118139e-04  3.3395364082460579e-04  3.4189079676596903e-04  3.5033765814428147e-04  3.5909927857995949e-04  3.6803868028048234e-04  3.7705623891535627e-04  3.8607038701442612e-04  3.9499988571455573e-04  4.0374637319956312e-04  4.1217567730852554e-04  4.2009832749610255e-04  4.2725346970054045e-04  4.3330299509692667e-04  4.3784450425268350e-04  4.4051821654197433e-04  4.4096599282069065e-04  3.0230407999194952e-04  3.0285205365973772e-04  3.0622508290556303e-04  3.1197552012880220e-04  3.1947386551596551e-04  3.2811583652983588e-04  3.3744217679111606e-04  3.4714691624993432e-04  3.5704538099619754e-04  3.6703331658100588e-04  3.7705300496114144e-04  3.8706764676615463e-04  3.9704045479560941e-04  4.0691395639285040e-04  4.1658518977936092e-04  4.2587704023699973e-04  4.3449831763474778e-04  4.4200557673852671e-04  4.4781368237233011e-04  4.5133113635349850e-04  4.5193402911550620e-04  2.8834517443077079e-04  2.8911580997673428e-04  2.9375266770814397e-04  3.0144466170854402e-04  3.1103326039066162e-04  3.2162110084612314e-04  3.3263583342009868e-04  3.4377561226740544e-04  3.5490941305669680e-04  3.6599938447710574e-04  3.7705463364397424e-04  3.8810331679726441e-04  3.9917292609825249e-04  4.1027052176944342e-04  4.2135745682269764e-04  4.3230902483565455e-04  4.4281822109539773e-04  4.5236588001414422e-04  4.6013942676641792e-04  4.6504788853686887e-04  4.6588368553472219e-04  2.7044206763884382e-04  2.7116503335948122e-04  2.7824521650820659e-04  2.8905813131763637e-04  3.0165432059367839e-04  3.1474946316211263e-04  3.2773280682793889e-04  3.4042578931434137e-04  3.5282529918578181e-04  3.6500375837048596e-04  3.7706334626641497e-04  3.8911550349295760e-04  4.0127018006134681e-04  4.1362534249956412e-04  4.2624952336214401e-04  4.3911373101535175e-04  4.5200951139163717e-04  4.6460339415063440e-04  4.7546615599943474e-04  4.8267909605660312e-04  4.8400746736053060e-04  2.4295774197527251e-04  2.4734725164017173e-04  2.5903071678145693e-04  2.7494489085613398e-04  2.9195058180535744e-04  3.0804664886207732e-04  3.2314499841696730e-04  3.3737917890174423e-04  3.5096489938923561e-04  3.6412678355718337e-04  3.7707784091335536e-04  3.9002192462539963e-04  4.0316116645339260e-04  4.1670343079741763e-04  4.3085794809684050e-04  4.4578344917496057e-04  4.6175937992031137e-04  4.7837012281651096e-04  4.9313887566984497e-04  5.0613091175962595e-04  5.0955652820578368e-04  2.0968795159249153e-04  2.1656901496349822e-04  2.3341667033312724e-04  2.6121249109643747e-04  2.8319177938564209e-04  3.0237943330552560e-04  3.1943461511706742e-04  3.3498019963044994e-04  3.4952600194613435e-04  3.6345899601358703e-04  3.7709863461899351e-04  3.9073315815886289e-04  4.0464944713792606e-04  4.1916185187204722e-04  4.3463710555001326e-04  4.5155751676729763e-04  4.7071625549819675e-04  4.9089466039020353e-04  5.1604635752936108e-04  5.4499208259682055e-04  5.4535487627140847e-04  2.0825890740956460e-04  1.2302773941886153e-04  2.1927840188300067e-04  2.5077500697069335e-04  2.7726248219220621e-04  2.9887780240522079e-04  3.1719612616881200e-04  3.3356353428966697e-04  3.4869230539614891e-04  3.6308343939695794e-04  3.7712967666976739e-04  3.9117470407577792e-04  4.0556180135277583e-04  4.2068052098703616e-04  4.3703108862392693e-04  4.5536916093537577e-04  4.7670797318639252e-04  5.0218758174349839e-04  5.4681918217627855e-04  5.6895874927088486e-04  6.0105369962673246e-04  -1.0260926372939727e-03  2.2970603382219351e-04  2.1096896929821267e-04  2.4638104911922464e-04  2.7680375524597974e-04  2.9828509418153515e-04  3.1682419955016209e-04  3.3334212915357486e-04  3.4856358215228789e-04  3.6302849136335381e-04  3.7714101406341043e-04  3.9125385554726817e-04  4.0572003130471710e-04  4.2094373854965211e-04  4.3745724910031393e-04  4.5601988062653865e-04  4.7771061392333963e-04  5.0617933694488036e-04  5.4583980755316215e-04  5.6991909216333057e-04  1.0091252316995114e-03  </DataArray> 
</PointData> 
</Piece>
</UnstructuredGrid>
</VTKFile>