<?xml version="1.0"?>
<VTKFile type="UnstructuredGrid"  version="0.1"  >
<UnstructuredGrid>
<Piece  NumberOfPoints="651" NumberOfCells="1200">
<Points>
<DataArray  type="Float64"  NumberOfComponents="3"  format="ascii">0 0 0  50000 0 0  100000 0 0  150000 0 0  200000 0 0  250000 0 0  300000 0 0  350000 0 0  400000 0 0  450000 0 0  500000 0 0  550000 0 0  600000 0 0  650000 0 0  700000 0 0  750000 0 0  800000 0 0  850000 0 0  900000 0 0  950000 0 0  1000000 0 0  0 50000 0  50000 50000 0  100000 50000 0  150000 50000 0  200000 50000 0  250000 50000 0  300000 50000 0  350000 50000 0  400000 50000 0  450000 50000 0  500000 50000 0  550000 50000 0  600000 50000 0  650000 50000 0  700000 50000 0  750000 50000 0  800000 50000 0  850000 50000 0  900000 50000 0  950000 50000 0  1000000 50000 0  0 100000 0  50000 100000 0  100000 100000 0  150000 100000 0  200000 100000 0  250000 100000 0  300000 100000 0  350000 100000 0  400000 100000 0  450000 100000 0  500000 100000 0  550000 100000 0  600000 100000 0  650000 100000 0  700000 100000 0  750000 100000 0  800000 100000 0  850000 100000 0  900000 100000 0  950000 100000 0  1000000 100000 0  0 150000 0  50000 150000 0  100000 150000 0  150000 150000 0  200000 150000 0  250000 150000 0  300000 150000 0  350000 150000 0  400000 150000 0  450000 150000 0  500000 150000 0  550000 150000 0  600000 150000 0  650000 150000 0  700000 150000 0  750000 150000 0  800000 150000 0  850000 150000 0  900000 150000 0  950000 150000 0  1000000 150000 0  0 200000 0  50000 200000 0  100000 200000 0  150000 200000 0  200000 200000 0  250000 200000 0  300000 200000 0  350000 200000 0  400000 200000 0  450000 200000 0  500000 200000 0  550000 200000 0  600000 200000 0  650000 200000 0  700000 200000 0  750000 200000 0  800000 200000 0  850000 200000 0  900000 200000 0  950000 200000 0  1000000 200000 0  0 250000 0  50000 250000 0  100000 250000 0  150000 250000 0  200000 250000 0  250000 250000 0  300000 250000 0  350000 250000 0  400000 250000 0  450000 250000 0  500000 250000 0  550000 250000 0  600000 250000 0  650000 250000 0  700000 250000 0  750000 250000 0  800000 250000 0  850000 250000 0  900000 250000 0  950000 250000 0  1000000 250000 0  0 300000 0  50000 300000 0  100000 300000 0  150000 300000 0  200000 300000 0  250000 300000 0  300000 300000 0  350000 300000 0  400000 300000 0  450000 300000 0  500000 300000 0  550000 300000 0  600000 300000 0  650000 300000 0  700000 300000 0  750000 300000 0  800000 300000 0  850000 300000 0  900000 300000 0  950000 300000 0  1000000 300000 0  0 350000 0  50000 350000 0  100000 350000 0  150000 350000 0  200000 350000 0  250000 350000 0  300000 350000 0  350000 350000 0  400000 350000 0  450000 350000 0  500000 350000 0  550000 350000 0  600000 350000 0  650000 350000 0  700000 350000 0  750000 350000 0  800000 350000 0  850000 350000 0  900000 350000 0  950000 350000 0  1000000 350000 0  0 400000 0  50000 400000 0  100000 400000 0  150000 400000 0  200000 400000 0  250000 400000 0  300000 400000 0  350000 400000 0  400000 400000 0  450000 400000 0  500000 400000 0  550000 400000 0  600000 400000 0  650000 400000 0  700000 400000 0  750000 400000 0  800000 400000 0  850000 400000 0  900000 400000 0  950000 400000 0  1000000 400000 0  0 450000 0  50000 450000 0  100000 450000 0  150000 450000 0  200000 450000 0  250000 450000 0  300000 450000 0  350000 450000 0  400000 450000 0  450000 450000 0  500000 450000 0  550000 450000 0  600000 450000 0  650000 450000 0  700000 450000 0  750000 450000 0  800000 450000 0  850000 450000 0  900000 450000 0  950000 450000 0  1000000 450000 0  0 500000 0  50000 500000 0  100000 500000 0  150000 500000 0  200000 500000 0  250000 500000 0  300000 500000 0  350000 500000 0  400000 500000 0  450000 500000 0  500000 500000 0  550000 500000 0  600000 500000 0  650000 500000 0  700000 500000 0  750000 500000 0  800000 500000 0  850000 500000 0  900000 500000 0  950000 500000 0  1000000 500000 0  0 550000 0  50000 550000 0  100000 550000 0  150000 550000 0  200000 550000 0  250000 550000 0  300000 550000 0  350000 550000 0  400000 550000 0  450000 550000 0  500000 550000 0  550000 550000 0  600000 550000 0  650000 550000 0  700000 550000 0  750000 550000 0  800000 550000 0  850000 550000 0  900000 550000 0  950000 550000 0  1000000 550000 0  0 600000 0  50000 600000 0  100000 600000 0  150000 600000 0  200000 600000 0  250000 600000 0  300000 600000 0  350000 600000 0  400000 600000 0  450000 600000 0  500000 600000 0  550000 600000 0  600000 600000 0  650000 600000 0  700000 600000 0  750000 600000 0  800000 600000 0  850000 600000 0  900000 600000 0  950000 600000 0  1000000 600000 0  0 650000 0  50000 650000 0  100000 650000 0  150000 650000 0  200000 650000 0  250000 650000 0  300000 650000 0  350000 650000 0  400000 650000 0  450000 650000 0  500000 650000 0  550000 650000 0  600000 650000 0  650000 650000 0  700000 650000 0  750000 650000 0  800000 650000 0  850000 650000 0  900000 650000 0  950000 650000 0  1000000 650000 0  0 700000 0  50000 700000 0  100000 700000 0  150000 700000 0  200000 700000 0  250000 700000 0  300000 700000 0  350000 700000 0  400000 700000 0  450000 700000 0  500000 700000 0  550000 700000 0  600000 700000 0  650000 700000 0  700000 700000 0  750000 700000 0  800000 700000 0  850000 700000 0  900000 700000 0  950000 700000 0  1000000 700000 0  0 750000 0  50000 750000 0  100000 750000 0  150000 750000 0  200000 750000 0  250000 750000 0  300000 750000 0  350000 750000 0  400000 750000 0  450000 750000 0  500000 750000 0  550000 750000 0  600000 750000 0  650000 750000 0  700000 750000 0  750000 750000 0  800000 750000 0  850000 750000 0  900000 750000 0  950000 750000 0  1000000 750000 0  0 800000 0  50000 800000 0  100000 800000 0  150000 800000 0  200000 800000 0  250000 800000 0  300000 800000 0  350000 800000 0  400000 800000 0  450000 800000 0  500000 800000 0  550000 800000 0  600000 800000 0  650000 800000 0  700000 800000 0  750000 800000 0  800000 800000 0  850000 800000 0  900000 800000 0  950000 800000 0  1000000 800000 0  0 850000 0  50000 850000 0  100000 850000 0  150000 850000 0  200000 850000 0  250000 850000 0  300000 850000 0  350000 850000 0  400000 850000 0  450000 850000 0  500000 850000 0  550000 850000 0  600000 850000 0  650000 850000 0  700000 850000 0  750000 850000 0  800000 850000 0  850000 850000 0  900000 850000 0  950000 850000 0  1000000 850000 0  0 900000 0  50000 900000 0  100000 900000 0  150000 900000 0  200000 900000 0  250000 900000 0  300000 900000 0  350000 900000 0  400000 900000 0  450000 900000 0  500000 900000 0  550000 900000 0  600000 900000 0  650000 900000 0  700000 900000 0  750000 900000 0  800000 900000 0  850000 900000 0  900000 900000 0  950000 900000 0  1000000 900000 0  0 950000 0  50000 950000 0  100000 950000 0  150000 950000 0  200000 950000 0  250000 950000 0  300000 950000 0  350000 950000 0  400000 950000 0  450000 950000 0  500000 950000 0  550000 950000 0  600000 950000 0  650000 950000 0  700000 950000 0  750000 950000 0  800000 950000 0  850000 950000 0  900000 950000 0  950000 950000 0  1000000 950000 0  0 1000000 0  50000 1000000 0  100000 1000000 0  150000 1000000 0  200000 1000000 0  250000 1000000 0  300000 1000000 0  350000 1000000 0  400000 1000000 0  450000 1000000 0  500000 1000000 0  550000 1000000 0  600000 1000000 0  650000 1000000 0  700000 1000000 0  750000 1000000 0  800000 1000000 0  850000 1000000 0  900000 1000000 0  950000 1000000 0  1000000 1000000 0  0 1050000 0  50000 1050000 0  100000 1050000 0  150000 1050000 0  200000 1050000 0  250000 1050000 0  300000 1050000 0  350000 1050000 0  400000 1050000 0  450000 1050000 0  500000 1050000 0  550000 1050000 0  600000 1050000 0  650000 1050000 0  700000 1050000 0  750000 1050000 0  800000 1050000 0  850000 1050000 0  900000 1050000 0  950000 1050000 0  1000000 1050000 0  0 1100000 0  50000 1100000 0  100000 1100000 0  150000 1100000 0  200000 1100000 0  250000 1100000 0  300000 1100000 0  350000 1100000 0  400000 1100000 0  450000 1100000 0  500000 1100000 0  550000 1100000 0  600000 1100000 0  650000 1100000 0  700000 1100000 0  750000 1100000 0  800000 1100000 0  850000 1100000 0  900000 1100000 0  950000 1100000 0  1000000 1100000 0  0 1150000 0  50000 1150000 0  100000 1150000 0  150000 1150000 0  200000 1150000 0  250000 1150000 0  300000 1150000 0  350000 1150000 0  400000 1150000 0  450000 1150000 0  500000 1150000 0  550000 1150000 0  600000 1150000 0  650000 1150000 0  700000 1150000 0  750000 1150000 0  800000 1150000 0  850000 1150000 0  900000 1150000 0  950000 1150000 0  1000000 1150000 0  0 1200000 0  50000 1200000 0  100000 1200000 0  150000 1200000 0  200000 1200000 0  250000 1200000 0  300000 1200000 0  350000 1200000 0  400000 1200000 0  450000 1200000 0  500000 1200000 0  550000 1200000 0  600000 1200000 0  650000 1200000 0  700000 1200000 0  750000 1200000 0  800000 1200000 0  850000 1200000 0  900000 1200000 0  950000 1200000 0  1000000 1200000 0  0 1250000 0  50000 1250000 0  100000 1250000 0  150000 1250000 0  200000 1250000 0  250000 1250000 0  300000 1250000 0  350000 1250000 0  400000 1250000 0  450000 1250000 0  500000 1250000 0  550000 1250000 0  600000 1250000 0  650000 1250000 0  700000 1250000 0  750000 1250000 0  800000 1250000 0  850000 1250000 0  900000 1250000 0  950000 1250000 0  1000000 1250000 0  0 1300000 0  50000 1300000 0  100000 1300000 0  150000 1300000 0  200000 1300000 0  250000 1300000 0  300000 1300000 0  350000 1300000 0  400000 1300000 0  450000 1300000 0  500000 1300000 0  550000 1300000 0  600000 1300000 0  650000 1300000 0  700000 1300000 0  750000 1300000 0  800000 1300000 0  850000 1300000 0  900000 1300000 0  950000 1300000 0  1000000 1300000 0  0 1350000 0  50000 1350000 0  100000 1350000 0  150000 1350000 0  200000 1350000 0  250000 1350000 0  300000 1350000 0  350000 1350000 0  400000 1350000 0  450000 1350000 0  500000 1350000 0  550000 1350000 0  600000 1350000 0  650000 1350000 0  700000 135
[...]
<PointData  Vectors="f_25021"> 
<DataArray  type="Float64"  Name="f_25021"  NumberOfComponents="3" format="ascii">-1.0861887136932628e-10 -7.2756586481216712e-11 0.0000000000000000e+00  7.9924037389657639e-08 -6.4209377204053954e-11 0.0000000000000000e+00  7.9991739376526843e-08 -5.4872165662443174e-14 0.0000000000000000e+00  7.9982153773211306e-08 5.6441805549203995e-13 0.0000000000000000e+00  7.9989852002790321e-08 -1.3732745483224772e-13 0.0000000000000000e+00  7.9991522204410721e-08 2.3398347508441212e-13 0.0000000000000000e+00  7.9992672915837362e-08 1.0839441570212022e-13 0.0000000000000000e+00  7.9993402912863709e-08 8.0784775370271924e-14 0.0000000000000000e+00  7.9993805668918544e-08 5.6394186293333785e-14 0.0000000000000000e+00  7.9994000371500440e-08 3.6678861456233714e-14 0.0000000000000000e+00  7.9994013819578852e-08 2.2492568148520451e-14 0.0000000000000000e+00  7.9993848084867089e-08 1.3105811148333025e-14 0.0000000000000000e+00  7.9993474693248854e-08 6.3994928238993707e-15 0.0000000000000000e+00  7.9992836165441821e-08 5.2893060256588289e-15 0.0000000000000000e+00  7.9991682440330849e-08 1.1254473808966772e-13 0.0000000000000000e+00  7.9990059521191184e-08 -1.8929937011442998e-13 0.0000000000000000e+00  7.9986906228696305e-08 1.4257750891282144e-12 0.0000000000000000e+00  7.9971044331368245e-08 6.2965475469623958e-12 0.0000000000000000e+00  7.9992319789050099e-08 -3.0220744868725258e-11 0.0000000000000000e+00  7.9548653239222068e-08 4.1107092377339413e-10 0.0000000000000000e+00  -5.8978909411876674e-10 5.2504671294394106e-10 0.0000000000000000e+00  -8.5491029259100032e-11 -6.7853640527432858e-11 0.0000000000000000e+00  -1.3611770438748036e-08 -1.5255355153524719e-08 0.0000000000000000e+00  -2.5931908080030544e-09 -4.7128418291036978e-09 0.0000000000000000e+00  -1.3457234127179206e-09 -2.2072949893962870e-09 0.0000000000000000e+00  1.4141962172044509e-09 -1.1437699443738600e-09 0.0000000000000000e+00  2.4785138181148906e-09 -6.5877314184519491e-10 0.0000000000000000e+00  3.2088602348055910e-09 -4.2024252716737850e-10 0.0000000000000000e+00  3.6687748280573483e-09 -2.7071021048346095e-10 0.0000000000000000e+00  3.9500636916643085e-09 -1.6906112301095938e-10 0.0000000000000000e+00  4.1042004300997741e-09 -9.1085987906624896e-11 0.0000000000000000e+00  4.1528752743560998e-09 -2.2990341633876290e-11 0.0000000000000000e+00  4.1029865155906177e-09 4.5164570993030439e-11 0.0000000000000000e+00  3.9476537976374817e-09 1.2338648133427057e-10 0.0000000000000000e+00  3.6635830312989448e-09 2.2524016988988742e-10 0.0000000000000000e+00  3.2069254485683539e-09 3.7473487353284144e-10 0.0000000000000000e+00  2.4790487866505350e-09 6.1986440788492158e-10 0.0000000000000000e+00  1.2737190151834520e-09 1.0674702522144644e-09 0.0000000000000000e+00  -4.2201119087433363e-10 2.1579280899100096e-09 0.0000000000000000e+00  -5.7981634832663985e-09 4.8031107766735562e-09 0.0000000000000000e+00  -9.7477999533066799e-09 1.4439251024199859e-08 0.0000000000000000e+00  -4.3471747087125313e-10 4.2118687899008307e-10 0.0000000000000000e+00  -9.1109608607297429e-12 -1.3498510246761405e-11 0.0000000000000000e+00  -5.7092227730499733e-09 -1.0970574751402768e-08 0.0000000000000000e+00  -7.4882245824727089e-09 -7.4554972255724219e-09 0.0000000000000000e+00  -7.1358766947637223e-09 -4.2002851298522174e-09 0.0000000000000000e+00  -5.7927901013967460e-09 -2.3393258268122207e-09 0.0000000000000000e+00  -5.1469543101673699e-09 -1.4452388049096707e-09 0.0000000000000000e+00  -4.5405868135995323e-09 -9.1641839248407858e-10 0.0000000000000000e+00  -4.1613647451017644e-09 -5.7599068667433210e-10 0.0000000000000000e+00  -3.9138488581098997e-09 -3.3697553655576576e-10 0.0000000000000000e+00  -3.7753263598205088e-09 -1.4943937563321522e-10 0.0000000000000000e+00  -3.7308423551628394e-09 1.5719471880053080e-11 0.0000000000000000e+00  -3.7752739932690820e-09 1.8087514640871398e-10 0.0000000000000000e+00  -3.9133715669439935e-09 3.6834663321317849e-10 0.0000000000000000e+00  -4.1599496836706013e-09 6.0740247871994501e-10 0.0000000000000000e+00  -4.5433213426331423e-09 9.4528459519610960e-10 0.0000000000000000e+00  -5.1087721496464280e-09 1.4702158441953424e-09 0.0000000000000000e+00  -5.8831997715734631e-09 2.3681202450833753e-09 0.0000000000000000e+00  -7.0221523547787975e-09 4.0559601683730683e-09 0.0000000000000000e+00  -7.6213671227838732e-09 7.4137415576284769e-09 0.0000000000000000e+00  -4.7704915697388954e-09 1.3770925410051099e-08 0.0000000000000000e+00  1.2103391984428644e-11 3.1869653176901316e-12 0.0000000000000000e+00  3.7383719668009163e-13 -1.4856387681618935e-11 0.0000000000000000e+00  -2.4102858883891895e-09 -8.5762924164067907e-09 0.0000000000000000e+00  -4.6974487753927737e-09 -6.6875515596933601e-09 0.0000000000000000e+00  -5.1308179141296399e-09 -4.3784305638600865e-09 0.0000000000000000e+00  -5.0616550757739124e-09 -2.9277658787329685e-09 0.0000000000000000e+00  -4.7881333746477314e-09 -1.9594755171370549e-09 0.0000000000000000e+00  -4.4635877902712199e-09 -1.3015381250040750e-09 0.0000000000000000e+00  -4.2327429243455927e-09 -8.5088422974641247e-10 0.0000000000000000e+00  -4.0632008249701062e-09 -5.1552020398470329e-10 0.0000000000000000e+00  -3.9648780857505743e-09 -2.4409179019735505e-10 0.0000000000000000e+00  -3.9323621423785602e-09 -1.3398121287417189e-12 0.0000000000000000e+00  -3.9641887740396708e-09 2.4138883850042302e-10 0.0000000000000000e+00  -4.0617526193166972e-09 5.1258457523073408e-10 0.0000000000000000e+00  -4.2285596419448883e-09 8.4760824959076851e-10 0.0000000000000000e+00  -4.4670535442834550e-09 1.2981119530261832e-09 0.0000000000000000e+00  -4.7660421138205648e-09 1.9472468170596357e-09 0.0000000000000000e+00  -5.0815355457274761e-09 2.9327394358821265e-09 0.0000000000000000e+00  -5.1891560543005958e-09 4.4539051077846043e-09 0.0000000000000000e+00  -4.5296819887533267e-09 6.7141090496899808e-09 0.0000000000000000e+00  -2.4074459811065971e-09 8.0113161467826732e-09 0.0000000000000000e+00  -2.3572505311001724e-12 2.4935472026901051e-11 0.0000000000000000e+00  1.4551070392073840e-14 -9.3224790777591033e-12 0.0000000000000000e+00  -1.3107621772879450e-09 -5.9227068018015493e-09 0.0000000000000000e+00  -2.8314851927227746e-09 -5.2593115103128968e-09 0.0000000000000000e+00  -3.6414050049802508e-09 -4.0946073935703278e-09 0.0000000000000000e+00  -3.9769481435068165e-09 -2.9973755078162737e-09 0.0000000000000000e+00  -3.9893706677920206e-09 -2.1234681490451244e-09 0.0000000000000000e+00  -3.9165763539140129e-09 -1.4814455241700232e-09 0.0000000000000000e+00  -3.8216782336429147e-09 -9.9750219156782713e-10 0.0000000000000000e+00  -3.7373778705309209e-09 -6.1466557921183353e-10 0.0000000000000000e+00  -3.6842035635360398e-09 -2.9315657546444097e-10 0.0000000000000000e+00  -3.6656979850971175e-09 2.1375277760421133e-14 0.0000000000000000e+00  -3.6836113688732629e-09 2.9314229974386688e-10 0.0000000000000000e+00  -3.7365732698829679e-09 6.1441814810952179e-10 0.0000000000000000e+00  -3.8191066291246210e-09 9.9648911564954753e-10 0.0000000000000000e+00  -3.9163458280513178e-09 1.4810639667179127e-09 0.0000000000000000e+00  -3.9926578569334054e-09 2.1225896041346314e-09 0.0000000000000000e+00  -3.9630648989910354e-09 2.9834171673189290e-09 0.0000000000000000e+00  -3.6575683941029539e-09 4.1038451872451134e-09 0.0000000000000000e+00  -2.8145542565862706e-09 5.3129838254905474e-09 0.0000000000000000e+00  -1.2797913759856837e-09 5.9677782390362435e-09 0.0000000000000000e+00  -2.0566525383055547e-12 1.2845884741287979e-11 0.0000000000000000e+00  2.2598823123633258e-13 -6.7366334073982898e-12 0.0000000000000000e+00  -8.1956339074610576e-10 -4.5000651892760921e-09 0.0000000000000000e+00  -1.9151877387136797e-09 -4.2817935667025296e-09 0.0000000000000000e+00  -2.6777183655207720e-09 -3.5406792078479761e-09 0.0000000000000000e+00  -3.1053112782953659e-09 -2.7538169035254154e-09 0.0000000000000000e+00  -3.3061128634933535e-09 -2.0727279892600730e-09 0.0000000000000000e+00  -3.3833822954863751e-09 -1.5089823504002994e-09 0.0000000000000000e+00  -3.3940967534785429e-09 -1.0441441646449082e-09 0.0000000000000000e+00  -3.3828186134892562e-09 -6.5560421260923301e-10 0.0000000000000000e+00  -3.3696672240263885e-09 -3.1598066100423952e-10 0.0000000000000000e+00  -3.3641047916120452e-09 7.1737212956649855e-14 0.0000000000000000e+00  -3.3692954930544214e-09 3.1606698939917199e-10 0.0000000000000000e+00  -3.3823455946811239e-09 6.5560246995994402e-10 0.0000000000000000e+00  -3.3934581006923835e-09 1.0438469942578234e-09 0.0000000000000000e+00  -3.3818684467669017e-09 1.5080538792078328e-09 0.0000000000000000e+00  -3.3081290212994453e-09 2.0746319553238801e-09 0.0000000000000000e+00  -3.1044347516051482e-09 2.7578630037635989e-09 0.0000000000000000e+00  -2.6712010087505340e-09 3.5271872838956836e-09 0.0000000000000000e+00  -1.9086905745994437e-09 4.2629407562117351e-09 0.0000000000000000e+00  -8.2208787444698287e-10 4.5130554923541255e-09 0.0000000000000000e+00  2.4975761789872177e-13 8.4330663224245074e-12 0.0000000000000000e+00  1.6501688955481661e-13 -5.1726794042833381e-12 0.0000000000000000e+00  -5.7633515859200847e-10 -3.5107733644907052e-09 0.0000000000000000e+00  -1.3894053613674975e-09 -3.4223751585895974e-09 0.0000000000000000e+00  -2.0303545612483563e-09 -2.9613873803137059e-09 0.0000000000000000e+00  -2.4722303709211649e-09 -2.4271498601346398e-09 0.0000000000000000e+00  -2.7473347710376549e-09 -1.9052990800508440e-09 0.0000000000000000e+00  -2.9039970911949252e-09 -1.4314169528827609e-09 0.0000000000000000e+00  -2.9868501376401059e-09 -1.0154281494159494e-09 0.0000000000000000e+00  -3.0278236977322735e-09 -6.4861713038833629e-10 0.0000000000000000e+00  -3.0454062695951020e-09 -3.1574360539826231e-10 0.0000000000000000e+00  -3.0501412276733757e-09 -1.2974445151795781e-13 0.0000000000000000e+00  -3.0452282440747358e-09 3.1544213388963591e-10 0.0000000000000000e+00  -3.0274867128489497e-09 6.4823701575910485e-10 0.0000000000000000e+00  -2.9866964471973298e-09 1.0150776149028096e-09 0.0000000000000000e+00  -2.9034761161885280e-09 1.4307544591729654e-09 0.0000000000000000e+00  -2.7465640510645915e-09 1.9036498220123205e-09 0.0000000000000000e+00  -2.4718962201685296e-09 2.4263381422916060e-09 0.0000000000000000e+00  -2.0295214559385727e-09 2.9621764057274679e-09 0.0000000000000000e+00  -1.3871184369470587e-09 3.4232688907076440e-09 0.0000000000000000e+00  -5.7805323568456301e-10 3.5147937672770625e-09 0.0000000000000000e+00  -3.8660961659497871e-14 6.4902534087502995e-12 0.0000000000000000e+00  1.3249120634695912e-13 -4.0167337823411126e-12 0.0000000000000000e+00  -4.3226073381756168e-10 -2.7782726739357645e-09 0.0000000000000000e+00  -1.0620476688396985e-09 -2.7585071698311350e-09 0.0000000000000000e+00  -1.5984306099927930e-09 -2.4576489520566466e-09 0.0000000000000000e+00  -2.0099710161347689e-09 -2.0770568586880762e-09 0.0000000000000000e+00  -2.3013136895253157e-09 -1.6784439021089386e-09 0.0000000000000000e+00  -2.4961927311120320e-09 -1.2943235408909515e-09 0.0000000000000000e+00  -2.6201376503744482e-09 -9.3714721052298845e-10 0.0000000000000000e+00  -2.6939817846249971e-09 -6.0712292235829787e-10 0.0000000000000000e+00  -2.7325554565635430e-09 -2.9805565717687073e-10 0.0000000000000000e+00  -2.7444788623712773e-09 -1.8592789663948258e-13 0.0000000000000000e+00  -2.7324732956900908e-09 2.9766839303198642e-10 0.0000000000000000e+00  -2.6937957682387438e-09 6.0667051198474102e-10 0.0000000000000000e+00  -2.6199224711886670e-09 9.3662442563462660e-10 0.0000000000000000e+00  -2.4960083995799642e-09 1.2938507530525786e-09 0.0000000000000000e+00  -2.3008643626053867e-09 1.6775635193954254e-09 0.0000000000000000e+00  -2.0091895727652475e-09 2.0746549701527741e-09 0.0000000000000000e+00  -1.5984077361535625e-09 2.4541868652809711e-09 0.0000000000000000e+00  -1.0623138560973762e-09 2.7588746650825133e-09 0.0000000000000000e+00  -4.3380904278221288e-10 2.7856524368698012e-09 0.0000000000000000e+00  4.6589373220049915e-14 4.9251240833334164e-12 0.0000000000000000e+00  1.1027824502484410e-13 -3.1546059241285940e-12 0.0000000000000000e+00  -3.4059297711848206e-10 -2.2125758132519720e-09 0.0000000000000000e+00  -8.4725723230885661e-10 -2.2202708574653729e-09 0.0000000000000000e+00  -1.2987099056144170e-09 -2.0131739210614833e-09 0.0000000000000000e+00  -1.6684065461533252e-09 -1.7382680705688024e-09 0.0000000000000000e+00  -1.9521691810853205e-09 -1.4359569846880420e-09 0.0000000000000000e+00  -2.1591155105076320e-09 -1.1291260455333599e-09 0.0000000000000000e+00  -2.3021982489901800e-09 -8.3035243100666443e-10 0.0000000000000000e+00  -2.3943034638678424e-09 -5.4410915715616761e-10 0.0000000000000000e+00  -2.4454668612279065e-09 -2.6900910981636244e-10 0.0000000000000000e+00  -2.4618180704892297e-09 -2.3095417055303550e-13 0.0000000000000000e+00  -2.4454146038957845e-09 2.6853734204185422e-10 0.0000000000000000e+00  -2.3942047834802603e-09 5.4359957476915905e-10 0.0000000000000000e+00  -2.3020349394899838e-09 8.2973798705266988e-10 0.0000000000000000e+00  -2.1589108414110175e-09 1.1283317722163614e-09 0.0000000000000000e+00  -1.9519976749399520e-09 1.4349627910175864e-09 0.0000000000000000e+00  -1.6682161582520014e-09 1.7368435034714289e-09 0.0000000000000000e+00  -1.2990087745959784e-09 2.0112441274718996e-09 0.0000000000000000e+00  -8.4778510092788780e-10 2.2211749732472072e-09 0.0000000000000000e+00  -3.4198910604648710e-10 2.2182027605148268e-09 0.0000000000000000e+00  5.6498671158269787e-14 3.8531796035209324e-12 0.0000000000000000e+00  9.2742744261119790e-14 -2.4667058117558486e-12 0.0000000000000000e+00  -2.7897996813795153e-10 -1.7553874198951614e-09 0.0000000000000000e+00  -6.9935054447762729e-10 -1.7736218643227707e-09 0.0000000000000000e+00  -1.0849872573818598e-09 -1.6275141175726644e-09 0.0000000000000000e+00  -1.4145533096170209e-09 -1.4262463394877754e-09 0.0000000000000000e+00  -1.6808153899629414e-09 -1.1963820644542822e-09 0.0000000000000000e+00  -1.8856182552000918e-09 -9.5412306479098523e-10 0.0000000000000000e+00  -2.0346769373728358e-09 -7.1006465569351100e-10 0.0000000000000000e+00  -2.1349779070294319e-09 -4.6946471612066405e-10 0.0000000000000000e+00  -2.1925148804938034e-09 -2.3339980467107297e-10 0.0000000000000000e+00  -2.2112267014524789e-09 -2.5953804470432541e-13 0.0000000000000000e+00  -2.1924789954169388e-09 2.3286778166141860e-10 0.0000000000000000e+00  -2.1349118445298548e-09 4.6889492036205087e-10 0.0000000000000000e+00  -2.0345848127890147e-09 7.0941962481798366e-10 0.0000000000000000e+00  -1.8855015022787426e-09 9.5332259630963893e-10 0.0000000000000000e+00  -1.6807549935836524e-09 1.1953327823316458e-09 0.0000000000000000e+00  -1.4146139075762229e-09 1.4249192324805858e-09 0.0000000000000000e+00  -1.0854686026415229e-09 1.6261821957526155e-09 0.0000000000000000e+00  -6.9992373840118448e-10 1.7748853951785214e-09 0.0000000000000000e+00  -2.8006382048232795e-10 1.7602039555616398e-09 0.0000000000000000e+00  5.5892581646107997e-14 3.0255160044724637e-12 0.0000000000000000e+00  8.0216749184339132e-14 -1.8975468012393273e-12 0.0000000000000000e+00  -2.3604956116429485e-10 -1.3735769450635970e-09 0.0000000000000000e+00  -5.9478623655837607e-10 -1.3942966419020344e-09 0.0000000000000000e+00  -9.3028105174284654e-10 -1.2897436590453319e-09 0.0000000000000000e+00  -1.2251534176240717e-09 -1.1416938540504400e-09 0.0000000000000000e+00  -1.4715858665999110e-09 -9.6808680532702363e-10 0.0000000000000000e+00  -1.6679646388234473e-09 -7.8005994015611507e-10 0.0000000000000000e+00  -1.8157656506748845e-09 -5.8568612842438916e-10 0.0000000000000000e+00  -1.9180591158247849e-09 -3.8984265600945980e-10 0.0000000000000000e+00  -1.9779459551020547e-09 -1.9464845932181567e-10 0.0000000000000000e+00  -1.9976372919282174e-09 -2.7913764594235832e-13 0.0000000000000000e+00  -1.9779235760789988e-09 1.9407861085723222e-10 0.0000000000000000e+00  -1.9180174974216292e-09 3.8923563989961957e-10 0.0000000000000000e+00  -1.8157173023604815e-09 5.8501252327571100e-10 0.0000000000000000e+00  -1.6679293036133075e-09 7.7928467085497155e-10 0.0000000000000000e+00  -1.4716257054615230e-09 9.6717247894736838e-10 0.0000000000000000e+00  -1.2253128521297046e-09 1.1406330563391476e-09 0.0000000000000000e+00  -9.3074621152166169e-10 1.2887804906090157e-09 0.0000000000000000e+00  -5.9529213932978295e-10 1.3956099828241855e-09 0.0000000000000000e+00  -2.3688919126398782e-10 1.3777616451398787e-09 0.0000000000000000e+00  5.5383743000431028e-14 2.3613036171429245e-12 0.0000000000000000e+00  7.0910218915833959e-14 -1.4104163644831321e-12 0.0000000000000000e+00  -2.0576232897470925e-10 -1.0450270520029169e-09 0.0000000000000000e+00  -5.2024458628752162e-10 -1.0641615018282481e-09 0.0000000000000000e+00  -8.1814730477679079e-10 -9.8976239552094214e-10 0.0000000000000000e+00  -1.0849242902692149e-09 -8.8222861928238051e-10 0.0000000000000000e+00  -1.3129978622326971e-09 -7.5374617558400267e-10 0.0000000000000000e+00  -1.4991118354910773e-09 -6.1181381936967352e-10 0.0000000000000000e+00  -1.6423572699843168e-09 -4.6230575633134383e-10 0.0000000000000000e+00  -1.7433781036432145e-09 -3.0924590686963798e-10 0.0000000000000000e+00  -1.8033278319373967e-09 -1.5491444557718961e-10 0.0000000000000000e+00  -1.8231828931183443e-09 -2.9249732768683463e-13 0.0000000000000000e+00  -1.8033151973984928e-09 1.5432027747269716e-10 0.0000000000000000e+00  -1.7433571496062906e-09 3.0862314304469347e-10 0.0000000000000000e+00  -1.6423405461732593e-09 4.6163352838571045e-10 0.0000000000000000e+00  -1.4991215062611842e-09 6.1107492323506619e-10 0.0000000000000000e+00  -1.3130836456577122e-09 7.5293785648962670e-10 0.0000000000000000e+00  -1.0851102123224495e-09 8.8137169017039198e-10 0.0000000000000000e+00  -8.1854051174312902e-10 9.8905925982304612e-10 0.0000000000000000e+00  -5.2064694512877888e-10 1.0654615170513804e-09 0.0000000000000000e+00  -2.0639505105181128e-10 1.0487148904977539e-09 0.0000000000000000e+00  5.3720242775140315e-14 1.8087281775498695e-12 0.0000000000000000e+00  6.4004204375073755e-14 -9.7958070683591929e-13 0.0000000000000000e+00  -1.8466264343179055e-10 -7.5408075306353027e-10 0.0000000000000000e+00  -4.6792423764214518e-10 -7.6962890493860628e-10 0.0000000000000000e+00  -7.3854113842982501e-10 -7.1853766231534823e-10 0.0000000000000000e+00  -9.8389312119579798e-10 -6.4346863972507959e-10 0.0000000000000000e+00  -1.1968299343167690e-09 -5.5259314725130697e-10 0.0000000000000000e+00  -1.3733504580084893e-09 -4.5081390360879165e-10 0.0000000000000000e+00  -1.5112507930547062e-09 -3.4218064416198826e-10 0.0000000000000000e+00  -1.6097271323301142e-09 -2.2970648455373340e-10 0.0000000000000000e+00  -1.6686962026755759e-09 -1.1536041164364423e-10 0.0000000000000000e+00  -1.6883203428676667e-09 -3.0039793221009823e-13 0.0000000000000000e+00  -1.6686901319816695e-09 1.1475283990895250e-10 0.0000000000000000e+00  -1.6097196159676240e-09 2.2907904411450828e-10 0.0000000000000000e+00  -1.5112529577557290e-09 3.4152232026491573e-10 0.0000000000000000e+00  -1.3733798933509957e-09 4.5012013543758999e-10 0.0000000000000000e+00  -1.1969210633938995e-09 5.5187407414460098e-10 0.0000000000000000e+00  -9.8405807881790983e-10 6.4275198167119591e-10 0.0000000000000000e+00  -7.3884175738130550e-10 7.1799662891720774e-10 0.0000000000000000e+00  -4.6822064180433364e-10 7.7089276110979039e-10 0.0000000000000000e+00  -1.8511511204980017e-10 7.5741401496062090e-10 0.0000000000000000e+00  5.2412685978435354e-14 1.3328974581266447e-12 0.0000000000000000e+00  5.8965489359929562e-14 -5.8586694122598999e-13 0.0000000000000000e+00  -1.7073042756325937e-10 -4.8889085201801807e-10 0.0000000000000000e+00  -4.3318245452073029e-10 -4.9988454450129924e-10 0.0000000000000000e+00  -6.8527611376373277e-10 -4.6798795070274806e-10 0.0000000000000000e+00  -9.1561463637690921e-10 -4.2036872979792861e-10 0.0000000000000000e+00  -1.1174344545635140e-09 -3.6221119606568546e-10 0.000000000