<?xml version="1.0"?>
<VTKFile type="UnstructuredGrid"  version="0.1"  >
<UnstructuredGrid>
<Piece  NumberOfPoints="651" NumberOfCells="1200">
<Points>
<DataArray  type="Float64"  NumberOfComponents="3"  format="ascii">0 0 0  50000 0 0  100000 0 0  150000 0 0  200000 0 0  250000 0 0  300000 0 0  350000 0 0  400000 0 0  450000 0 0  500000 0 0  550000 0 0  600000 0 0  650000 0 0  700000 0 0  750000 0 0  800000 0 0  850000 0 0  900000 0 0  950000 0 0  1000000 0 0  0 50000 0  50000 50000 0  100000 50000 0  150000 50000 0  200000 50000 0  250000 50000 0  300000 50000 0  350000 50000 0  400000 50000 0  450000 50000 0  500000 50000 0  550000 50000 0  600000 50000 0  650000 50000 0  700000 50000 0  750000 50000 0  800000 50000 0  850000 50000 0  900000 50000 0  950000 50000 0  1000000 50000 0  0 100000 0  50000 100000 0  100000 100000 0  150000 100000 0  200000 100000 0  250000 100000 0  300000 100000 0  350000 100000 0  400000 100000 0  450000 100000 0  500000 100000 0  550000 100000 0  600000 100000 0  650000 100000 0  700000 100000 0  750000 100000 0  800000 100000 0  850000 100000 0  900000 100000 0  950000 100000 0  1000000 100000 0  0 150000 0  50000 150000 0  100000 150000 0  150000 150000 0  200000 150000 0  250000 150000 0  300000 150000 0  350000 150000 0  400000 150000 0  450000 150000 0  500000 150000 0  550000 150000 0  600000 150000 0  650000 150000 0  700000 150000 0  750000 150000 0  800000 150000 0  850000 150000 0  900000 150000 0  950000 150000 0  1000000 150000 0  0 200000 0  50000 200000 0  100000 200000 0  150000 200000 0  200000 200000 0  250000 200000 0  300000 200000 0  350000 200000 0  400000 200000 0  450000 200000 0  500000 200000 0  550000 200000 0  600000 200000 0  650000 200000 0  700000 200000 0  750000 200000 0  800000 200000 0  850000 200000 0  900000 200000 0  950000 200000 0  1000000 200000 0  0 250000 0  50000 250000 0  100000 250000 0  150000 250000 0  200000 250000 0  250000 250000 0  300000 250000 0  350000 250000 0  400000 250000 0  450000 250000 0  500000 250000 0  550000 250000 0  600000 250000 0  650000 250000 0  700000 250000 0  750000 250000 0  800000 250000 0  850000 250000 0  900000 250000 0  950000 250000 0  1000000 250000 0  0 300000 0  50000 300000 0  100000 300000 0  150000 300000 0  200000 300000 0  250000 300000 0  300000 300000 0  350000 300000 0  400000 300000 0  450000 300000 0  500000 300000 0  550000 300000 0  600000 300000 0  650000 300000 0  700000 300000 0  750000 300000 0  800000 300000 0  850000 300000 0  900000 300000 0  950000 300000 0  1000000 300000 0  0 350000 0  50000 350000 0  100000 350000 0  150000 350000 0  200000 350000 0  250000 350000 0  300000 350000 0  350000 350000 0  400000 350000 0  450000 350000 0  500000 350000 0  550000 350000 0  600000 350000 0  650000 350000 0  700000 350000 0  750000 350000 0  800000 350000 0  850000 350000 0  900000 350000 0  950000 350000 0  1000000 350000 0  0 400000 0  50000 400000 0  100000 400000 0  150000 400000 0  200000 400000 0  250000 400000 0  300000 400000 0  350000 400000 0  400000 400000 0  450000 400000 0  500000 400000 0  550000 400000 0  600000 400000 0  650000 400000 0  700000 400000 0  750000 400000 0  800000 400000 0  850000 400000 0  900000 400000 0  950000 400000 0  1000000 400000 0  0 450000 0  50000 450000 0  100000 450000 0  150000 450000 0  200000 450000 0  250000 450000 0  300000 450000 0  350000 450000 0  400000 450000 0  450000 450000 0  500000 450000 0  550000 450000 0  600000 450000 0  650000 450000 0  700000 450000 0  750000 450000 0  800000 450000 0  850000 450000 0  900000 450000 0  950000 450000 0  1000000 450000 0  0 500000 0  50000 500000 0  100000 500000 0  150000 500000 0  200000 500000 0  250000 500000 0  300000 500000 0  350000 500000 0  400000 500000 0  450000 500000 0  500000 500000 0  550000 500000 0  600000 500000 0  650000 500000 0  700000 500000 0  750000 500000 0  800000 500000 0  850000 500000 0  900000 500000 0  950000 500000 0  1000000 500000 0  0 550000 0  50000 550000 0  100000 550000 0  150000 550000 0  200000 550000 0  250000 550000 0  300000 550000 0  350000 550000 0  400000 550000 0  450000 550000 0  500000 550000 0  550000 550000 0  600000 550000 0  650000 550000 0  700000 550000 0  750000 550000 0  800000 550000 0  850000 550000 0  900000 550000 0  950000 550000 0  1000000 550000 0  0 600000 0  50000 600000 0  100000 600000 0  150000 600000 0  200000 600000 0  250000 600000 0  300000 600000 0  350000 600000 0  400000 600000 0  450000 600000 0  500000 600000 0  550000 600000 0  600000 600000 0  650000 600000 0  700000 600000 0  750000 600000 0  800000 600000 0  850000 600000 0  900000 600000 0  950000 600000 0  1000000 600000 0  0 650000 0  50000 650000 0  100000 650000 0  150000 650000 0  200000 650000 0  250000 650000 0  300000 650000 0  350000 650000 0  400000 650000 0  450000 650000 0  500000 650000 0  550000 650000 0  600000 650000 0  650000 650000 0  700000 650000 0  750000 650000 0  800000 650000 0  850000 650000 0  900000 650000 0  950000 650000 0  1000000 650000 0  0 700000 0  50000 700000 0  100000 700000 0  150000 700000 0  200000 700000 0  250000 700000 0  300000 700000 0  350000 700000 0  400000 700000 0  450000 700000 0  500000 700000 0  550000 700000 0  600000 700000 0  650000 700000 0  700000 700000 0  750000 700000 0  800000 700000 0  850000 700000 0  900000 700000 0  950000 700000 0  1000000 700000 0  0 750000 0  50000 750000 0  100000 750000 0  150000 750000 0  200000 750000 0  250000 750000 0  300000 750000 0  350000 750000 0  400000 750000 0  450000 750000 0  500000 750000 0  550000 750000 0  600000 750000 0  650000 750000 0  700000 750000 0  750000 750000 0  800000 750000 0  850000 750000 0  900000 750000 0  950000 750000 0  1000000 750000 0  0 800000 0  50000 800000 0  100000 800000 0  150000 800000 0  200000 800000 0  250000 800000 0  300000 800000 0  350000 800000 0  400000 800000 0  450000 800000 0  500000 800000 0  550000 800000 0  600000 800000 0  650000 800000 0  700000 800000 0  750000 800000 0  800000 800000 0  850000 800000 0  900000 800000 0  950000 800000 0  1000000 800000 0  0 850000 0  50000 850000 0  100000 850000 0  150000 850000 0  200000 850000 0  250000 850000 0  300000 850000 0  350000 850000 0  400000 850000 0  450000 850000 0  500000 850000 0  550000 850000 0  600000 850000 0  650000 850000 0  700000 850000 0  750000 850000 0  800000 850000 0  850000 850000 0  900000 850000 0  950000 850000 0  1000000 850000 0  0 900000 0  50000 900000 0  100000 900000 0  150000 900000 0  200000 900000 0  250000 900000 0  300000 900000 0  350000 900000 0  400000 900000 0  450000 900000 0  500000 900000 0  550000 900000 0  600000 900000 0  650000 900000 0  700000 900000 0  750000 900000 0  800000 900000 0  850000 900000 0  900000 900000 0  950000 900000 0  1000000 900000 0  0 950000 0  50000 950000 0  100000 950000 0  150000 950000 0  200000 950000 0  250000 950000 0  300000 950000 0  350000 950000 0  400000 950000 0  450000 950000 0  500000 950000 0  550000 950000 0  600000 950000 0  650000 950000 0  700000 950000 0  750000 950000 0  800000 950000 0  850000 950000 0  900000 950000 0  950000 950000 0  1000000 950000 0  0 1000000 0  50000 1000000 0  100000 1000000 0  150000 1000000 0  200000 1000000 0  250000 1000000 0  300000 1000000 0  350000 1000000 0  400000 1000000 0  450000 1000000 0  500000 1000000 0  550000 1000000 0  600000 1000000 0  650000 1000000 0  700000 1000000 0  750000 1000000 0  800000 1000000 0  850000 1000000 0  900000 1000000 0  950000 1000000 0  1000000 1000000 0  0 1050000 0  50000 1050000 0  100000 1050000 0  150000 1050000 0  200000 1050000 0  250000 1050000 0  300000 1050000 0  350000 1050000 0  400000 1050000 0  450000 1050000 0  500000 1050000 0  550000 1050000 0  600000 1050000 0  650000 1050000 0  700000 1050000 0  750000 1050000 0  800000 1050000 0  850000 1050000 0  900000 1050000 0  950000 1050000 0  1000000 1050000 0  0 1100000 0  50000 1100000 0  100000 1100000 0  150000 1100000 0  200000 1100000 0  250000 1100000 0  300000 1100000 0  350000 1100000 0  400000 1100000 0  450000 1100000 0  500000 1100000 0  550000 1100000 0  600000 1100000 0  650000 1100000 0  700000 1100000 0  750000 1100000 0  800000 1100000 0  850000 1100000 0  900000 1100000 0  950000 1100000 0  1000000 1100000 0  0 1150000 0  50000 1150000 0  100000 1150000 0  150000 1150000 0  200000 1150000 0  250000 1150000 0  300000 1150000 0  350000 1150000 0  400000 1150000 0  450000 1150000 0  500000 1150000 0  550000 1150000 0  600000 1150000 0  650000 1150000 0  700000 1150000 0  750000 1150000 0  800000 1150000 0  850000 1150000 0  900000 1150000 0  950000 1150000 0  1000000 1150000 0  0 1200000 0  50000 1200000 0  100000 1200000 0  150000 1200000 0  200000 1200000 0  250000 1200000 0  300000 1200000 0  350000 1200000 0  400000 1200000 0  450000 1200000 0  500000 1200000 0  550000 1200000 0  600000 1200000 0  650000 1200000 0  700000 1200000 0  750000 1200000 0  800000 1200000 0  850000 1200000 0  900000 1200000 0  950000 1200000 0  1000000 1200000 0  0 1250000 0  50000 1250000 0  100000 1250000 0  150000 1250000 0  200000 1250000 0  250000 1250000 0  300000 1250000 0  350000 1250000 0  400000 1250000 0  450000 1250000 0  500000 1250000 0  550000 1250000 0  600000 1250000 0  650000 1250000 0  700000 1250000 0  750000 1250000 0  800000 1250000 0  850000 1250000 0  900000 1250000 0  950000 1250000 0  1000000 1250000 0  0 1300000 0  50000 1300000 0  100000 1300000 0  150000 1300000 0  200000 1300000 0  250000 1300000 0  300000 1300000 0  350000 1300000 0  400000 1300000 0  450000 1300000 0  500000 1300000 0  550000 1300000 0  600000 1300000 0  650000 1300000 0  700000 1300000 0  750000 1300000 0  800000 1300000 0  850000 1300000 0  900000 1300000 0  950000 1300000 0  1000000 1300000 0  0 1350000 0  50000 1350000 0  100000 1350000 0  150000 1350000 0  200000 1350000 0  250000 1350000 0  300000 1350000 0  350000 1350000 0  400000 1350000 0  450000 1350000 0  500000 1350000 0  550000 1350000 0  600000 1350000 0  650000 1350000 0  700000 135
[...]
<PointData  Vectors="f_25021"> 
<DataArray  type="Float64"  Name="f_25021"  NumberOfComponents="3" format="ascii">-1.2587280839235779e-10 -8.9852602866880831e-11 0.0000000000000000e+00  7.9908486528103979e-08 -7.7675565986180561e-11 0.0000000000000000e+00  7.9982577883488421e-08 -4.5787854276375941e-12 0.0000000000000000e+00  7.9973589145443210e-08 -1.3924085170750468e-12 0.0000000000000000e+00  7.9982794096499303e-08 -1.2797454405887737e-12 0.0000000000000000e+00  7.9985570302592344e-08 -4.2563310469660303e-13 0.0000000000000000e+00  7.9987280274758493e-08 -2.8301926398962876e-13 0.0000000000000000e+00  7.9988421608948509e-08 -1.7062208347547696e-13 0.0000000000000000e+00  7.9989071479800802e-08 -8.4513905121949573e-14 0.0000000000000000e+00  7.9989382204307747e-08 -1.6615071498150699e-14 0.0000000000000000e+00  7.9989404295092050e-08 5.0257905985220959e-14 0.0000000000000000e+00  7.9989139090545946e-08 1.2713839400602604e-13 0.0000000000000000e+00  7.9988548206004822e-08 2.2549358398430567e-13 0.0000000000000000e+00  7.9987533959378317e-08 3.8602549455354512e-13 0.0000000000000000e+00  7.9985810048054348e-08 6.8859053759902005e-13 0.0000000000000000e+00  7.9983331988745959e-08 7.5910794485113937e-13 0.0000000000000000e+00  7.9978831481993392e-08 3.3213312563067249e-12 0.0000000000000000e+00  7.9960802035031278e-08 9.9325206025456153e-12 0.0000000000000000e+00  7.9984335508320970e-08 -2.4434206223701107e-11 0.0000000000000000e+00  7.9502598931586123e-08 4.6193774399760097e-10 0.0000000000000000e+00  -6.4310856447003674e-10 5.9475330488305380e-10 0.0000000000000000e+00  -9.9600313340750103e-11 -8.2776185450506381e-11 0.0000000000000000e+00  -1.4420778898644907e-08 -8.7017746271221588e-09 0.0000000000000000e+00  -6.5512788088702942e-09 -3.3232235800741930e-09 0.0000000000000000e+00  -6.4233337946011646e-09 -1.3665855314908281e-09 0.0000000000000000e+00  -4.6704624589646385e-09 -7.8639774427649239e-10 0.0000000000000000e+00  -3.9550907093644080e-09 -4.4887267301070181e-10 0.0000000000000000e+00  -3.4932551681192491e-09 -2.7747270777844734e-10 0.0000000000000000e+00  -3.1923031451020436e-09 -1.7078387113942336e-10 0.0000000000000000e+00  -3.0066196091014947e-09 -9.6295591821694816e-11 0.0000000000000000e+00  -2.9052281560519112e-09 -3.8471462357986652e-11 0.0000000000000000e+00  -2.8734979065430175e-09 1.2363439837951581e-11 0.0000000000000000e+00  -2.9072047234734890e-09 6.3397797029682533e-11 0.0000000000000000e+00  -3.0108260267034370e-09 1.2184523400866167e-10 0.0000000000000000e+00  -3.1987062356533841e-09 1.9746864326342734e-10 0.0000000000000000e+00  -3.5000704211311981e-09 3.0672548489381227e-10 0.0000000000000000e+00  -3.9787407813608023e-09 4.8191705781508085e-10 0.0000000000000000e+00  -4.7312801914415562e-09 8.0214954835095178e-10 0.0000000000000000e+00  -5.7623484013471281e-09 1.4913217328533370e-09 0.0000000000000000e+00  -9.4356488876143846e-09 3.1210209592018482e-09 0.0000000000000000e+00  -1.0214184224819475e-08 8.6077112932864754e-09 0.0000000000000000e+00  -4.8044740798109849e-10 4.7426230782700307e-10 0.0000000000000000e+00  -1.4161706324994439e-11 -2.1986174284499684e-11 0.0000000000000000e+00  -3.5450961274728177e-09 -6.5884386141998481e-09 0.0000000000000000e+00  -4.8467266509641502e-09 -4.8102305537983385e-09 0.0000000000000000e+00  -4.6637727067880881e-09 -2.7512609725715745e-09 0.0000000000000000e+00  -3.8565724727688209e-09 -1.5589715509536081e-09 0.0000000000000000e+00  -3.4338679891107149e-09 -9.8341171991542185e-10 0.0000000000000000e+00  -3.0796131428529160e-09 -6.3760446365592083e-10 0.0000000000000000e+00  -2.8378919882897085e-09 -4.1097223905379025e-10 0.0000000000000000e+00  -2.6824452683842658e-09 -2.4965347565036055e-10 0.0000000000000000e+00  -2.5949347969742467e-09 -1.2225831967061886e-10 0.0000000000000000e+00  -2.5663610099453663e-09 -9.5636745240285583e-12 0.0000000000000000e+00  -2.5938069794050346e-09 1.0309766188520720e-10 0.0000000000000000e+00  -2.6799343720002597e-09 2.3035973486782269e-10 0.0000000000000000e+00  -2.8334770260763505e-09 3.9117361302808670e-10 0.0000000000000000e+00  -3.0706158827295423e-09 6.1549126490939484e-10 0.0000000000000000e+00  -3.4131229438818757e-09 9.5750807293324203e-10 0.0000000000000000e+00  -3.8803565115948290e-09 1.5265902157914107e-09 0.0000000000000000e+00  -4.5733636765669278e-09 2.5619084855457126e-09 0.0000000000000000e+00  -4.8122116349720754e-09 4.5397674418546912e-09 0.0000000000000000e+00  -3.3344897894764263e-09 9.0783284399025384e-09 0.0000000000000000e+00  1.0488146560897228e-11 1.2034125473717937e-11 0.0000000000000000e+00  -2.0255570133307345e-12 -2.2618561404381952e-11 0.0000000000000000e+00  -1.5645786709084853e-09 -5.6215250293464869e-09 0.0000000000000000e+00  -3.0033955362947733e-09 -4.2404299666833131e-09 0.0000000000000000e+00  -3.2302698771275815e-09 -2.8051180857017841e-09 0.0000000000000000e+00  -3.2060594651662993e-09 -1.8732388562063457e-09 0.0000000000000000e+00  -3.0402267869707578e-09 -1.2683755890304737e-09 0.0000000000000000e+00  -2.8534279304777032e-09 -8.4983551641301682e-10 0.0000000000000000e+00  -2.7075016474923566e-09 -5.5620826279165463e-10 0.0000000000000000e+00  -2.6042792483631731e-09 -3.3630694958915212e-10 0.0000000000000000e+00  -2.5432224063002267e-09 -1.5706282047278053e-10 0.0000000000000000e+00  -2.5228160637579179e-09 3.9287370957508217e-12 0.0000000000000000e+00  -2.5422550604648257e-09 1.6484843137446343e-10 0.0000000000000000e+00  -2.6021962581445940e-09 3.4383600211631615e-10 0.0000000000000000e+00  -2.7042759139233870e-09 5.6312453582055743e-10 0.0000000000000000e+00  -2.8488014768666691e-09 8.5459272450547584e-10 0.0000000000000000e+00  -3.0284832581460437e-09 1.2684007799359349e-09 0.0000000000000000e+00  -3.2140173073214070e-09 1.8848721308580743e-09 0.0000000000000000e+00  -3.2687358316254309e-09 2.8224121924107786e-09 0.0000000000000000e+00  -2.8745203325489708e-09 4.2368184940619047e-09 0.0000000000000000e+00  -1.5974890882955401e-09 5.2613358965921419e-09 0.0000000000000000e+00  -7.4920955618730058e-12 3.5643376806056413e-11 0.0000000000000000e+00  -1.3491737034957682e-12 -1.5088091504590607e-11 0.0000000000000000e+00  -9.2587072683414847e-10 -3.9363504859741871e-09 0.0000000000000000e+00  -1.8790381608856212e-09 -3.3640711386533463e-09 0.0000000000000000e+00  -2.3651983301573635e-09 -2.6027298566707643e-09 0.0000000000000000e+00  -2.5708400820823860e-09 -1.9210541848992362e-09 0.0000000000000000e+00  -2.5934114311094204e-09 -1.3719521457739457e-09 0.0000000000000000e+00  -2.5500284261552029e-09 -9.6204568761680749e-10 0.0000000000000000e+00  -2.4931471914246208e-09 -6.5004108768564032e-10 0.0000000000000000e+00  -2.4432177261456636e-09 -4.0182328536903295e-10 0.0000000000000000e+00  -2.4106568047174977e-09 -1.9192245506230386e-10 0.0000000000000000e+00  -2.3992548472445392e-09 5.6836915594925624e-14 0.0000000000000000e+00  -2.4099332178188244e-09 1.9190803074859460e-10 0.0000000000000000e+00  -2.4417427667194795e-09 4.0137192414111379e-10 0.0000000000000000e+00  -2.4909972131836424e-09 6.4876384467125817e-10 0.0000000000000000e+00  -2.5481819096844383e-09 9.5966569704756195e-10 0.0000000000000000e+00  -2.5908983695447448e-09 1.3669163091986776e-09 0.0000000000000000e+00  -2.5679138494321203e-09 1.9084309035430764e-09 0.0000000000000000e+00  -2.3767009806175702e-09 2.6079833337881688e-09 0.0000000000000000e+00  -1.8621834274584423e-09 3.3795001555563879e-09 0.0000000000000000e+00  -9.3511869892685596e-10 3.9893045153009873e-09 0.0000000000000000e+00  -3.5335245035527579e-12 1.9465157960109908e-11 0.0000000000000000e+00  -6.3368881658960328e-13 -1.1214016101495970e-11 0.0000000000000000e+00  -5.9613607252545493e-10 -3.0098650440689067e-09 0.0000000000000000e+00  -1.2889851446461056e-09 -2.7462777828280815e-09 0.0000000000000000e+00  -1.7611519123317075e-09 -2.2638585880744011e-09 0.0000000000000000e+00  -2.0327936023637628e-09 -1.7703590491190011e-09 0.0000000000000000e+00  -2.1608216698542022e-09 -1.3368634309566605e-09 0.0000000000000000e+00  -2.2115389338121425e-09 -9.7556071934168086e-10 0.0000000000000000e+00  -2.2217596835617481e-09 -6.7755395250479939e-10 0.0000000000000000e+00  -2.2166577510071757e-09 -4.2654681150811796e-10 0.0000000000000000e+00  -2.2093878540393439e-09 -2.0610166292931775e-10 0.0000000000000000e+00  -2.2061985600949122e-09 -5.3898550720598212e-13 0.0000000000000000e+00  -2.2089382514354664e-09 2.0491298803998468e-10 0.0000000000000000e+00  -2.2158129468471446e-09 4.2500314982296520e-10 0.0000000000000000e+00  -2.2206529698176277e-09 6.7536562779175821e-10 0.0000000000000000e+00  -2.2105197918595984e-09 9.7278939217589848e-10 0.0000000000000000e+00  -2.1612267692905395e-09 1.3335164485478946e-09 0.0000000000000000e+00  -2.0314617314613961e-09 1.7663171794000581e-09 0.0000000000000000e+00  -1.7615204974129414e-09 2.2540142000758325e-09 0.0000000000000000e+00  -1.2891226937345856e-09 2.7329670267958825e-09 0.0000000000000000e+00  -6.1269169385952637e-10 3.0471255615312169e-09 0.0000000000000000e+00  -9.9897361306841020e-13 1.3926097847911284e-11 0.0000000000000000e+00  -4.3573778452690498e-13 -8.7434882895277183e-12 0.0000000000000000e+00  -4.2468749019505337e-10 -2.3656878593380511e-09 0.0000000000000000e+00  -9.4663093221498586e-10 -2.2159039245866365e-09 0.0000000000000000e+00  -1.3491430844238211e-09 -1.9059869623672967e-09 0.0000000000000000e+00  -1.6282675637513221e-09 -1.5615415820275603e-09 0.0000000000000000e+00  -1.8028992537916985e-09 -1.2273326312184208e-09 0.0000000000000000e+00  -1.9041354553179791e-09 -9.2454646871307537e-10 0.0000000000000000e+00  -1.9587783862744966e-09 -6.5724621314699587e-10 0.0000000000000000e+00  -1.9861259527323169e-09 -4.2052638572182926e-10 0.0000000000000000e+00  -1.9982474241356440e-09 -2.0512073037270187e-10 0.0000000000000000e+00  -2.0015355855131578e-09 -5.6550925877007890e-13 0.0000000000000000e+00  -1.9980149669163776e-09 2.0390954738488763e-10 0.0000000000000000e+00  -1.9857300743556540e-09 4.1908031078187123e-10 0.0000000000000000e+00  -1.9583261695688800e-09 6.5543100273713795e-10 0.0000000000000000e+00  -1.9038288560121969e-09 9.2217421546206225e-10 0.0000000000000000e+00  -1.8030282231422106e-09 1.2246160682544611e-09 0.0000000000000000e+00  -1.6290098261003054e-09 1.5585887126166061e-09 0.0000000000000000e+00  -1.3510772263996326e-09 1.9019328330205007e-09 0.0000000000000000e+00  -9.4757802483210006e-10 2.2097997535117335e-09 0.0000000000000000e+00  -4.3622132234173255e-10 2.3853267514879969e-09 0.0000000000000000e+00  -8.3549523290597610e-13 1.0744301790455247e-11 0.0000000000000000e+00  -3.2812789974300233e-13 -6.8702925861090111e-12 0.0000000000000000e+00  -3.2239364778830013e-10 -1.8807365283579844e-09 0.0000000000000000e+00  -7.3010703305127528e-10 -1.7917840086561442e-09 0.0000000000000000e+00  -1.0696015789835376e-09 -1.5848166124752062e-09 0.0000000000000000e+00  -1.3311048340355930e-09 -1.3390672600778621e-09 0.0000000000000000e+00  -1.5170555209004184e-09 -1.0831852473212548e-09 0.0000000000000000e+00  -1.6421458112462629e-09 -8.3620615006984141e-10 0.0000000000000000e+00  -1.7221526287124618e-09 -6.0610434667851772e-10 0.0000000000000000e+00  -1.7702081543996222e-09 -3.9315910861655328e-10 0.0000000000000000e+00  -1.7954758587812435e-09 -1.9338635434446201e-10 0.0000000000000000e+00  -1.8032884805469406e-09 -6.4518746454970655e-13 0.0000000000000000e+00  -1.7953857622578210e-09 1.9204465754841111e-10 0.0000000000000000e+00  -1.7700738768839693e-09 3.9167297021563285e-10 0.0000000000000000e+00  -1.7220751622620193e-09 6.0439096915528812e-10 0.0000000000000000e+00  -1.6422139780841060e-09 8.3421268351971679e-10 0.0000000000000000e+00  -1.5174158665277610e-09 1.0808316668337833e-09 0.0000000000000000e+00  -1.3320421347508371e-09 1.3364038704791931e-09 0.0000000000000000e+00  -1.0718664857167664e-09 1.5821263549174443e-09 0.0000000000000000e+00  -7.3150746934768071e-10 1.7886606205634307e-09 0.0000000000000000e+00  -3.3011533475692010e-10 1.8971877396085343e-09 0.0000000000000000e+00  -5.4970274373870759e-13 8.3310765866237057e-12 0.0000000000000000e+00  -2.5693516678597687e-13 -5.4338772126794023e-12 0.0000000000000000e+00  -2.5606713403222508e-10 -1.5019340009544529e-09 0.0000000000000000e+00  -5.8613322902593097e-10 -1.4465802385790892e-09 0.0000000000000000e+00  -8.7413536431525448e-10 -1.3025254664744552e-09 0.0000000000000000e+00  -1.1105525671417309e-09 -1.1236710742072607e-09 0.0000000000000000e+00  -1.2921524219564815e-09 -9.2805520866775641e-10 0.0000000000000000e+00  -1.4249034629544462e-09 -7.2992412765705826e-10 0.0000000000000000e+00  -1.5170464668035322e-09 -5.3713208080647530e-10 0.0000000000000000e+00  -1.5765820047924741e-09 -3.5229874961066302e-10 0.0000000000000000e+00  -1.6097391529252585e-09 -1.7448410514963574e-10 0.0000000000000000e+00  -1.6203558764459772e-09 -6.6821488347973040e-13 0.0000000000000000e+00  -1.6097309110646668e-09 1.7311772407490857e-10 0.0000000000000000e+00  -1.5765980539074216e-09 3.5084485841868626e-10 0.0000000000000000e+00  -1.5171461058316114e-09 5.3554861631876165e-10 0.0000000000000000e+00  -1.4251762456253826e-09 7.2817804796760096e-10 0.0000000000000000e+00  -1.2927103231961332e-09 9.2613003993592313e-10 0.0000000000000000e+00  -1.1115469125076183e-09 1.1216330629310315e-09 0.0000000000000000e+00  -8.7608025234606084e-10 1.3006135042617218e-09 0.0000000000000000e+00  -5.8730218899322448e-10 1.4446171383482084e-09 0.0000000000000000e+00  -2.6168635527881348e-10 1.5153404492993685e-09 0.0000000000000000e+00  -4.0040011310131437e-13 6.5811002169859778e-12 0.0000000000000000e+00  -2.1172078371397299e-13 -4.2745477157983921e-12 0.0000000000000000e+00  -2.1101744533526212e-10 -1.1941740362977195e-09 0.0000000000000000e+00  -4.8626407673464178e-10 -1.1584545531019319e-09 0.0000000000000000e+00  -7.3380584985338719e-10 -1.0554687371589928e-09 0.0000000000000000e+00  -9.4556261449523470e-10 -9.2370458906668581e-10 0.0000000000000000e+00  -1.1165613965050967e-09 -7.7433932998081453e-10 0.0000000000000000e+00  -1.2482300425048821e-09 -6.1746113991402075e-10 0.0000000000000000e+00  -1.3442437993206615e-09 -4.5963572579237064e-10 0.0000000000000000e+00  -1.4089613973335743e-09 -3.0408074358579790e-10 0.0000000000000000e+00  -1.4461452820082436e-09 -1.5143566943276587e-10 0.0000000000000000e+00  -1.4582651652327511e-09 -6.5958329606344907e-13 0.0000000000000000e+00  -1.4461801445422755e-09 1.5010006862491212e-10 0.0000000000000000e+00  -1.4090525064654480e-09 3.0269904390738606e-10 0.0000000000000000e+00  -1.3444338783123286e-09 4.5818488530152358e-10 0.0000000000000000e+00  -1.2485836870423817e-09 6.1593189600831830e-10 0.0000000000000000e+00  -1.1171668109102757e-09 7.7275101515203302e-10 0.0000000000000000e+00  -9.4651559350170840e-10 9.2215886748621350e-10 0.0000000000000000e+00  -7.3539147631060661e-10 1.0541639981429113e-09 0.0000000000000000e+00  -4.8714195221620343e-10 1.1571414210890909e-09 0.0000000000000000e+00  -2.1520324202350771e-10 1.2051839751836349e-09 0.0000000000000000e+00  -3.1263926154497383e-13 5.2084287117403755e-12 0.0000000000000000e+00  -1.8114757155624645e-13 -3.3031837529590434e-12 0.0000000000000000e+00  -1.7946669469379385e-10 -9.3581395756203172e-10 0.0000000000000000e+00  -4.1523197858743473e-10 -9.1242372420489185e-10 0.0000000000000000e+00  -6.3164072828006718e-10 -8.3795751850957148e-10 0.0000000000000000e+00  -8.2189816708867356e-10 -7.4066566896443525e-10 0.0000000000000000e+00  -9.8072304748587556e-10 -6.2748217870344607e-10 0.0000000000000000e+00  -1.1072931621482123e-09 -5.0538501728246477e-10 0.0000000000000000e+00  -1.2026213681640863e-09 -3.7944539846153179e-10 0.0000000000000000e+00  -1.2686518139439893e-09 -2.5268320735517584e-10 0.0000000000000000e+00  -1.3073459454071005e-09 -1.2638751738690300e-10 0.0000000000000000e+00  -1.3200944185323196e-09 -6.3616858685425103e-13 0.0000000000000000e+00  -1.3073989196884112e-09 1.2510823034808507e-10 0.0000000000000000e+00  -1.2687730688768912e-09 2.5138497367528627e-10 0.0000000000000000e+00  -1.2028412394521997e-09 3.7812257232754609e-10 0.0000000000000000e+00  -1.1076569105554112e-09 5.0404421972828340e-10 0.0000000000000000e+00  -9.8129035800980260e-10 6.2615774482083818e-10 0.0000000000000000e+00  -8.2272428316951185e-10 7.3946242922716155e-10 0.0000000000000000e+00  -6.3288809214792671e-10 8.3703454832710182e-10 0.0000000000000000e+00  -4.1587400217525011e-10 9.1148442290963240e-10 0.0000000000000000e+00  -1.8259452744173802e-10 9.4514227061801754e-10 0.0000000000000000e+00  -2.5222560614207526e-13 4.0889909672495920e-12 0.0000000000000000e+00  -1.6032003715111269e-13 -2.4636679739929991e-12 0.0000000000000000e+00  -1.5713780072244361e-10 -7.1256393883128607e-10 0.0000000000000000e+00  -3.6437887664682782e-10 -6.9746109105224951e-10 0.0000000000000000e+00  -5.5730781258136421e-10 -6.4399799604514272e-10 0.0000000000000000e+00  -7.3003796972039077e-10 -5.7313454789871440e-10 0.0000000000000000e+00  -8.7748344825495467e-10 -4.8915872504165134e-10 0.0000000000000000e+00  -9.9773286602292822e-10 -3.9680493396328231e-10 0.0000000000000000e+00  -1.0902879991020054e-09 -2.9979136997065877e-10 0.0000000000000000e+00  -1.1555754390403801e-09 -2.0062063458992540e-10 0.0000000000000000e+00  -1.1943383632771183e-09 -1.0069585959287343e-10 0.0000000000000000e+00  -1.2071981856847736e-09 -6.0788949828971862e-13 0.0000000000000000e+00  -1.1943941248976632e-09 9.9479438443086016e-11 0.0000000000000000e+00  -1.1556976760385527e-09 1.9940411897737101e-10 0.0000000000000000e+00  -1.0904977745650168e-09 2.9858095936258414e-10 0.0000000000000000e+00  -9.9806062254794525e-10 3.9561763542872144e-10 0.0000000000000000e+00  -8.7796580293743305e-10 4.8803390324598299e-10 0.0000000000000000e+00  -7.3070281418015730e-10 5.7216556652092592e-10 0.0000000000000000e+00  -5.5825038099940411e-10 6.4330646985422174e-10 0.0000000000000000e+00  -3.6483581133395245e-10 6.9673598944708739e-10 0.0000000000000000e+00  -1.5944233744846328e-10 7.2069398764187114e-10 0.0000000000000000e+00  -2.1038722550377260e-13 3.1459309806783759e-12 0.0000000000000000e+00  -1.4681322106151750e-13 -1.7156124774423241e-12 0.0000000000000000e+00  -1.4157585388951839e-10 -5.1420356278935103e-10 0.0000000000000000e+00  -3.2858342984492736e-10 -5.0509035749154833e-10 0.0000000000000000e+00  -5.0440380692271529e-10 -4.6804706061831480e-10 0.0000000000000000e+00  -6.6370070480214722e-10 -4.1848830595404175e-10 0.0000000000000000e+00  -8.0171049805453662e-10 -3.5899681611694480e-10 0.0000000000000000e+00  -9.1601014595448955e-10 -2.9267805583710092e-10 0.0000000000000000e+00  -1.0052675429378434e-09 -2.2211075936109096e-10 0.0000000000000000e+00  -1.0689969481594079e-09 -1.4917762268847321e-10 0.0000000000000000e+00  -1.1071650434326466e-09 -7.5098061154986030e-11 0.0000000000000000e+00  -1.1198834195391047e-09 -5.8109744010455896e-13 0.0000000000000000e+00  -1.1072137475968082e-09 7.3939538446085447e-11 0.0000000000000000e+00  -1.0691015128231115e-09 1.4803170627384041e-10 0.0000000000000000e+00  -1.0054418109045340e-09 2.2099125183391550e-10 0.0000000000000000e+00  -9.1627325681968113e-10 2.9160752401442586e-10 0.0000000000000000e+00  -8.0208339752117528e-10 3.5801464021240331e-10 0.0000000000000000e+00  -6.6419578549005435e-10 4.1767500931369900e-10 0.0000000000000000e+00  -5.0507718535554420e-10 4.6749633694496146e-10 0.0000000000000000e+00  -3.2889504431260006e-10 5.0449062570559393e-10 0.0000000000000000e+00  -1.4320323432467912e-10 5.2149043420654706e-10 0.0000000000000000e+00  -1.8109248383531247e-13 2.3260068228450013e-12 0.0000000000000000e+00  -1.3923617792425059e-13 -1.0281468768165127e-12 0.0000000000000000e+00  -1.3133493396440222e-10 -3.3291906270934135e-10 0.0000000000000000e+00  -3.0477060151809931e-10 -3.2850136070053126e-10 0.0000000000000000e+00  -4.6895670057477719e-10 -3.0509781204870467e-10 0.0000000000000000e+00  -6.1880729698679726e-10 -2.7363650989894744e-10 0.0000000000000000e+00  -7.4986066689405149e-10