<?xml version="1.0"?>
<VTKFile type="UnstructuredGrid"  version="0.1"  >
<UnstructuredGrid>
<Piece  NumberOfPoints="651" NumberOfCells="1200">
<Points>
<DataArray  type="Float64"  NumberOfComponents="3"  format="ascii">0 0 0  50000 0 0  100000 0 0  150000 0 0  200000 0 0  250000 0 0  300000 0 0  350000 0 0  400000 0 0  450000 0 0  500000 0 0  550000 0 0  600000 0 0  650000 0 0  700000 0 0  750000 0 0  800000 0 0  850000 0 0  900000 0 0  950000 0 0  1000000 0 0  0 50000 0  50000 50000 0  100000 50000 0  150000 50000 0  200000 50000 0  250000 50000 0  300000 50000 0  350000 50000 0  400000 50000 0  450000 50000 0  500000 50000 0  550000 50000 0  600000 50000 0  650000 50000 0  700000 50000 0  750000 50000 0  800000 50000 0  850000 50000 0  900000 50000 0  950000 50000 0  1000000 50000 0  0 100000 0  50000 100000 0  100000 100000 0  150000 100000 0  200000 100000 0  250000 100000 0  300000 100000 0  350000 100000 0  400000 100000 0  450000 100000 0  500000 100000 0  550000 100000 0  600000 100000 0  650000 100000 0  700000 100000 0  750000 100000 0  800000 100000 0  850000 100000 0  900000 100000 0  950000 100000 0  1000000 100000 0  0 150000 0  50000 150000 0  100000 150000 0  150000 150000 0  200000 150000 0  250000 150000 0  300000 150000 0  350000 150000 0  400000 150000 0  450000 150000 0  500000 150000 0  550000 150000 0  600000 150000 0  650000 150000 0  700000 150000 0  750000 150000 0  800000 150000 0  850000 150000 0  900000 150000 0  950000 150000 0  1000000 150000 0  0 200000 0  50000 200000 0  100000 200000 0  150000 200000 0  200000 200000 0  250000 200000 0  300000 200000 0  350000 200000 0  400000 200000 0  450000 200000 0  500000 200000 0  550000 200000 0  600000 200000 0  650000 200000 0  700000 200000 0  750000 200000 0  800000 200000 0  850000 200000 0  900000 200000 0  950000 200000 0  1000000 200000 0  0 250000 0  50000 250000 0  100000 250000 0  150000 250000 0  200000 250000 0  250000 250000 0  300000 250000 0  350000 250000 0  400000 250000 0  450000 250000 0  500000 250000 0  550000 250000 0  600000 250000 0  650000 250000 0  700000 250000 0  750000 250000 0  800000 250000 0  850000 250000 0  900000 250000 0  950000 250000 0  1000000 250000 0  0 300000 0  50000 300000 0  100000 300000 0  150000 300000 0  200000 300000 0  250000 300000 0  300000 300000 0  350000 300000 0  400000 300000 0  450000 300000 0  500000 300000 0  550000 300000 0  600000 300000 0  650000 300000 0  700000 300000 0  750000 300000 0  800000 300000 0  850000 300000 0  900000 300000 0  950000 300000 0  1000000 300000 0  0 350000 0  50000 350000 0  100000 350000 0  150000 350000 0  200000 350000 0  250000 350000 0  300000 350000 0  350000 350000 0  400000 350000 0  450000 350000 0  500000 350000 0  550000 350000 0  600000 350000 0  650000 350000 0  700000 350000 0  750000 350000 0  800000 350000 0  850000 350000 0  900000 350000 0  950000 350000 0  1000000 350000 0  0 400000 0  50000 400000 0  100000 400000 0  150000 400000 0  200000 400000 0  250000 400000 0  300000 400000 0  350000 400000 0  400000 400000 0  450000 400000 0  500000 400000 0  550000 400000 0  600000 400000 0  650000 400000 0  700000 400000 0  750000 400000 0  800000 400000 0  850000 400000 0  900000 400000 0  950000 400000 0  1000000 400000 0  0 450000 0  50000 450000 0  100000 450000 0  150000 450000 0  200000 450000 0  250000 450000 0  300000 450000 0  350000 450000 0  400000 450000 0  450000 450000 0  500000 450000 0  550000 450000 0  600000 450000 0  650000 450000 0  700000 450000 0  750000 450000 0  800000 450000 0  850000 450000 0  900000 450000 0  950000 450000 0  1000000 450000 0  0 500000 0  50000 500000 0  100000 500000 0  150000 500000 0  200000 500000 0  250000 500000 0  300000 500000 0  350000 500000 0  400000 500000 0  450000 500000 0  500000 500000 0  550000 500000 0  600000 500000 0  650000 500000 0  700000 500000 0  750000 500000 0  800000 500000 0  850000 500000 0  900000 500000 0  950000 500000 0  1000000 500000 0  0 550000 0  50000 550000 0  100000 550000 0  150000 550000 0  200000 550000 0  250000 550000 0  300000 550000 0  350000 550000 0  400000 550000 0  450000 550000 0  500000 550000 0  550000 550000 0  600000 550000 0  650000 550000 0  700000 550000 0  750000 550000 0  800000 550000 0  850000 550000 0  900000 550000 0  950000 550000 0  1000000 550000 0  0 600000 0  50000 600000 0  100000 600000 0  150000 600000 0  200000 600000 0  250000 600000 0  300000 600000 0  350000 600000 0  400000 600000 0  450000 600000 0  500000 600000 0  550000 600000 0  600000 600000 0  650000 600000 0  700000 600000 0  750000 600000 0  800000 600000 0  850000 600000 0  900000 600000 0  950000 600000 0  1000000 600000 0  0 650000 0  50000 650000 0  100000 650000 0  150000 650000 0  200000 650000 0  250000 650000 0  300000 650000 0  350000 650000 0  400000 650000 0  450000 650000 0  500000 650000 0  550000 650000 0  600000 650000 0  650000 650000 0  700000 650000 0  750000 650000 0  800000 650000 0  850000 650000 0  900000 650000 0  950000 650000 0  1000000 650000 0  0 700000 0  50000 700000 0  100000 700000 0  150000 700000 0  200000 700000 0  250000 700000 0  300000 700000 0  350000 700000 0  400000 700000 0  450000 700000 0  500000 700000 0  550000 700000 0  600000 700000 0  650000 700000 0  700000 700000 0  750000 700000 0  800000 700000 0  850000 700000 0  900000 700000 0  950000 700000 0  1000000 700000 0  0 750000 0  50000 750000 0  100000 750000 0  150000 750000 0  200000 750000 0  250000 750000 0  300000 750000 0  350000 750000 0  400000 750000 0  450000 750000 0  500000 750000 0  550000 750000 0  600000 750000 0  650000 750000 0  700000 750000 0  750000 750000 0  800000 750000 0  850000 750000 0  900000 750000 0  950000 750000 0  1000000 750000 0  0 800000 0  50000 800000 0  100000 800000 0  150000 800000 0  200000 800000 0  250000 800000 0  300000 800000 0  350000 800000 0  400000 800000 0  450000 800000 0  500000 800000 0  550000 800000 0  600000 800000 0  650000 800000 0  700000 800000 0  750000 800000 0  800000 800000 0  850000 800000 0  900000 800000 0  950000 800000 0  1000000 800000 0  0 850000 0  50000 850000 0  100000 850000 0  150000 850000 0  200000 850000 0  250000 850000 0  300000 850000 0  350000 850000 0  400000 850000 0  450000 850000 0  500000 850000 0  550000 850000 0  600000 850000 0  650000 850000 0  700000 850000 0  750000 850000 0  800000 850000 0  850000 850000 0  900000 850000 0  950000 850000 0  1000000 850000 0  0 900000 0  50000 900000 0  100000 900000 0  150000 900000 0  200000 900000 0  250000 900000 0  300000 900000 0  350000 900000 0  400000 900000 0  450000 900000 0  500000 900000 0  550000 900000 0  600000 900000 0  650000 900000 0  700000 900000 0  750000 900000 0  800000 900000 0  850000 900000 0  900000 900000 0  950000 900000 0  1000000 900000 0  0 950000 0  50000 950000 0  100000 950000 0  150000 950000 0  200000 950000 0  250000 950000 0  300000 950000 0  350000 950000 0  400000 950000 0  450000 950000 0  500000 950000 0  550000 950000 0  600000 950000 0  650000 950000 0  700000 950000 0  750000 950000 0  800000 950000 0  850000 950000 0  900000 950000 0  950000 950000 0  1000000 950000 0  0 1000000 0  50000 1000000 0  100000 1000000 0  150000 1000000 0  200000 1000000 0  250000 1000000 0  300000 1000000 0  350000 1000000 0  400000 1000000 0  450000 1000000 0  500000 1000000 0  550000 1000000 0  600000 1000000 0  650000 1000000 0  700000 1000000 0  750000 1000000 0  800000 1000000 0  850000 1000000 0  900000 1000000 0  950000 1000000 0  1000000 1000000 0  0 1050000 0  50000 1050000 0  100000 1050000 0  150000 1050000 0  200000 1050000 0  250000 1050000 0  300000 1050000 0  350000 1050000 0  400000 1050000 0  450000 1050000 0  500000 1050000 0  550000 1050000 0  600000 1050000 0  650000 1050000 0  700000 1050000 0  750000 1050000 0  800000 1050000 0  850000 1050000 0  900000 1050000 0  950000 1050000 0  1000000 1050000 0  0 1100000 0  50000 1100000 0  100000 1100000 0  150000 1100000 0  200000 1100000 0  250000 1100000 0  300000 1100000 0  350000 1100000 0  400000 1100000 0  450000 1100000 0  500000 1100000 0  550000 1100000 0  600000 1100000 0  650000 1100000 0  700000 1100000 0  750000 1100000 0  800000 1100000 0  850000 1100000 0  900000 1100000 0  950000 1100000 0  1000000 1100000 0  0 1150000 0  50000 1150000 0  100000 1150000 0  150000 1150000 0  200000 1150000 0  250000 1150000 0  300000 1150000 0  350000 1150000 0  400000 1150000 0  450000 1150000 0  500000 1150000 0  550000 1150000 0  600000 1150000 0  650000 1150000 0  700000 1150000 0  750000 1150000 0  800000 1150000 0  850000 1150000 0  900000 1150000 0  950000 1150000 0  1000000 1150000 0  0 1200000 0  50000 1200000 0  100000 1200000 0  150000 1200000 0  200000 1200000 0  250000 1200000 0  300000 1200000 0  350000 1200000 0  400000 1200000 0  450000 1200000 0  500000 1200000 0  550000 1200000 0  600000 1200000 0  650000 1200000 0  700000 1200000 0  750000 1200000 0  800000 1200000 0  850000 1200000 0  900000 1200000 0  950000 1200000 0  1000000 1200000 0  0 1250000 0  50000 1250000 0  100000 1250000 0  150000 1250000 0  200000 1250000 0  250000 1250000 0  300000 1250000 0  350000 1250000 0  400000 1250000 0  450000 1250000 0  500000 1250000 0  550000 1250000 0  600000 1250000 0  650000 1250000 0  700000 1250000 0  750000 1250000 0  800000 1250000 0  850000 1250000 0  900000 1250000 0  950000 1250000 0  1000000 1250000 0  0 1300000 0  50000 1300000 0  100000 1300000 0  150000 1300000 0  200000 1300000 0  250000 1300000 0  300000 1300000 0  350000 1300000 0  400000 1300000 0  450000 1300000 0  500000 1300000 0  550000 1300000 0  600000 1300000 0  650000 1300000 0  700000 1300000 0  750000 1300000 0  800000 1300000 0  850000 1300000 0  900000 1300000 0  950000 1300000 0  1000000 1300000 0  0 1350000 0  50000 1350000 0  100000 1350000 0  150000 1350000 0  200000 1350000 0  250000 1350000 0  300000 1350000 0  350000 1350000 0  400000 1350000 0  450000 1350000 0  500000 1350000 0  550000 1350000 0  600000 1350000 0  650000 1350000 0  700000 135
[...]
<PointData  Vectors="f_25021"> 
<DataArray  type="Float64"  Name="f_25021"  NumberOfComponents="3" format="ascii">-1.4056864255811134e-10 -1.0066271335268726e-10 0.0000000000000000e+00  7.9895835282392076e-08 -8.5520552800436856e-11 0.0000000000000000e+00  7.9974963605412046e-08 -7.8046408274115330e-12 0.0000000000000000e+00  7.9967022809390688e-08 -2.7529287240668435e-12 0.0000000000000000e+00  7.9976955171520384e-08 -2.1559721873180447e-12 0.0000000000000000e+00  7.9980816263102437e-08 -9.7369387098363855e-13 0.0000000000000000e+00  7.9982939675308888e-08 -5.9273765879186172e-13 0.0000000000000000e+00  7.9984372596920922e-08 -3.7356908208891686e-13 0.0000000000000000e+00  7.9985220316052611e-08 -2.0158573100935147e-13 0.0000000000000000e+00  7.9985624059525993e-08 -6.0099562801483936e-14 0.0000000000000000e+00  7.9985652260981883e-08 7.4329290474754175e-14 0.0000000000000000e+00  7.9985309710512168e-08 2.2281900807303207e-13 0.0000000000000000e+00  7.9984547930970348e-08 4.1264454222015863e-13 0.0000000000000000e+00  7.9983231890873070e-08 6.9746371848226497e-13 0.0000000000000000e+00  7.9981072718996999e-08 1.0996879915196815e-12 0.0000000000000000e+00  7.9977974901580177e-08 1.5541070485748466e-12 0.0000000000000000e+00  7.9972296319378721e-08 5.0366107569931452e-12 0.0000000000000000e+00  7.9953128200555726e-08 1.1969017149604553e-11 0.0000000000000000e+00  7.9975883557791948e-08 -1.8743527356900360e-11 0.0000000000000000e+00  7.9480892685558121e-08 4.8631528841148105e-10 0.0000000000000000e+00  -6.6388454018749770e-10 6.2896806190004379e-10 0.0000000000000000e+00  -1.1055393420185085e-10 -9.3501007641927705e-11 0.0000000000000000e+00  -1.0661587320108384e-08 -4.7939773831964942e-09 0.0000000000000000e+00  -4.5334182573536366e-09 -2.5105901209747313e-09 0.0000000000000000e+00  -4.5078700749170206e-09 -9.1535720746155208e-10 0.0000000000000000e+00  -3.4548958601928653e-09 -4.9667242420992873e-10 0.0000000000000000e+00  -2.9057377150644082e-09 -2.5576143427801167e-10 0.0000000000000000e+00  -2.5781058811708987e-09 -1.2323246631584117e-10 0.0000000000000000e+00  -2.3665295552822244e-09 -4.0872820099421438e-11 0.0000000000000000e+00  -2.2344477469876646e-09 1.6971280410990067e-11 0.0000000000000000e+00  -2.1623344890906719e-09 6.2318612844568929e-11 0.0000000000000000e+00  -2.1401464117441747e-09 1.0244227581605397e-10 0.0000000000000000e+00  -2.1648953026874312e-09 1.4288254557477520e-10 0.0000000000000000e+00  -2.2397549261268472e-09 1.8925460629001886e-10 0.0000000000000000e+00  -2.3750275464310414e-09 2.4914307804066478e-10 0.0000000000000000e+00  -2.5919234763910450e-09 3.3523034797859366e-10 0.0000000000000000e+00  -2.9292722222229922e-09 4.7239919213617941e-10 0.0000000000000000e+00  -3.4403449895808980e-09 7.1896204223663946e-10 0.0000000000000000e+00  -4.2691548494684064e-09 1.2255118898629219e-09 0.0000000000000000e+00  -6.8583663615396281e-09 2.4101866161387930e-09 0.0000000000000000e+00  -6.1664288732660485e-09 5.5772692026646067e-09 0.0000000000000000e+00  -5.0185477412236318e-10 5.0083075191647537e-10 0.0000000000000000e+00  -1.8945695649625289e-11 -2.9670259055327152e-11 0.0000000000000000e+00  -2.9045685023617309e-09 -4.5856870723742090e-09 0.0000000000000000e+00  -4.3128657688502514e-09 -3.3834526664882047e-09 0.0000000000000000e+00  -3.9860657652761668e-09 -2.1171721492397171e-09 0.0000000000000000e+00  -3.5263329640956985e-09 -1.2053365820265801e-09 0.0000000000000000e+00  -3.1761276816581260e-09 -7.7141132500414080e-10 0.0000000000000000e+00  -2.9265799929825401e-09 -5.1591044271917193e-10 0.0000000000000000e+00  -2.7521519261473827e-09 -3.4720317416821373e-10 0.0000000000000000e+00  -2.6385779490371121e-09 -2.2605492513429071e-10 0.0000000000000000e+00  -2.5745127009676393e-09 -1.3007446548932333e-10 0.0000000000000000e+00  -2.5534028437251762e-09 -4.5030381790599020e-11 0.0000000000000000e+00  -2.5730806081271841e-09 3.9969958881029541e-11 0.0000000000000000e+00  -2.6353833526330833e-09 1.3574692672411462e-10 0.0000000000000000e+00  -2.7463492008274717e-09 2.5618614576769264e-10 0.0000000000000000e+00  -2.9166961600993398e-09 4.2297298007407653e-10 0.0000000000000000e+00  -3.1618406414579901e-09 6.7510651476761927e-10 0.0000000000000000e+00  -3.5040736757022890e-09 1.0891592259099586e-09 0.0000000000000000e+00  -3.9638330515184700e-09 1.8197539061156950e-09 0.0000000000000000e+00  -4.1144238633243179e-09 3.2292689285498514e-09 0.0000000000000000e+00  -3.1926508576186031e-09 6.4099778825706291e-09 0.0000000000000000e+00  7.1805339263694001e-12 2.0641389942482617e-11 0.0000000000000000e+00  -4.0151705674958709e-12 -2.8800787463352169e-11 0.0000000000000000e+00  -1.1399810149042393e-09 -3.9167709057679091e-09 0.0000000000000000e+00  -2.2395622130813034e-09 -3.0906335904272286e-09 0.0000000000000000e+00  -2.4913945737017382e-09 -2.0749497143358003e-09 0.0000000000000000e+00  -2.4300942046866535e-09 -1.3941303314295373e-09 0.0000000000000000e+00  -2.3146360474563486e-09 -9.3951714795584418e-10 0.0000000000000000e+00  -2.1850185943358414e-09 -6.3432252970622312e-10 0.0000000000000000e+00  -2.0796089181561277e-09 -4.1787585192304229e-10 0.0000000000000000e+00  -2.0048391759746243e-09 -2.5471621133932545e-10 0.0000000000000000e+00  -1.9605266122432791e-09 -1.2139130536745987e-10 0.0000000000000000e+00  -1.9455145617961022e-09 -1.4845286567081241e-12 0.0000000000000000e+00  -1.9592416353450206e-09 1.1831319318900033e-10 0.0000000000000000e+00  -2.0020944019678828e-09 2.5122519776928956e-10 0.0000000000000000e+00  -2.0750246513267261e-09 4.1334274577233354e-10 0.0000000000000000e+00  -2.1779895867645143e-09 6.2747636959739832e-10 0.0000000000000000e+00  -2.3055640741800267e-09 9.2890772925562562e-10 0.0000000000000000e+00  -2.4334478759064686e-09 1.3739907478883487e-09 0.0000000000000000e+00  -2.4703242812767482e-09 2.0520649816757748e-09 0.0000000000000000e+00  -2.1761177369995781e-09 3.0540937719526452e-09 0.0000000000000000e+00  -1.3261663799345508e-09 3.8235635274910994e-09 0.0000000000000000e+00  -1.1973280006291991e-11 4.4208685667187337e-11 0.0000000000000000e+00  -2.4747196615282272e-12 -1.9926520370608024e-11 0.0000000000000000e+00  -6.9421458474813465e-10 -2.8295134769826687e-09 0.0000000000000000e+00  -1.3907585877234453e-09 -2.4929728717346400e-09 0.0000000000000000e+00  -1.7407700733117608e-09 -1.9092107437325696e-09 0.0000000000000000e+00  -1.8901284505585883e-09 -1.4034335089143043e-09 0.0000000000000000e+00  -1.9097165718533301e-09 -1.0098828541133685e-09 0.0000000000000000e+00  -1.8815689660421963e-09 -7.0908920466428167e-10 0.0000000000000000e+00  -1.8409252622861640e-09 -4.7957871228883507e-10 0.0000000000000000e+00  -1.8053932814922603e-09 -2.9651055501636461e-10 0.0000000000000000e+00  -1.7820601029758095e-09 -1.4130373387373787e-10 0.0000000000000000e+00  -1.7737420094892255e-09 8.2396246904540008e-13 0.0000000000000000e+00  -1.7811531643742028e-09 1.4278513651651273e-10 0.0000000000000000e+00  -1.8035641249962798e-09 2.9743859357719734e-10 0.0000000000000000e+00  -1.8382095246373736e-09 4.7942287224321606e-10 0.0000000000000000e+00  -1.8780880870697466e-09 7.0702485935860254e-10 0.0000000000000000e+00  -1.9068332304441474e-09 1.0036169030997666e-09 0.0000000000000000e+00  -1.8878628544032787e-09 1.3963215152030772e-09 0.0000000000000000e+00  -1.7478088210944405e-09 1.9026311787463726e-09 0.0000000000000000e+00  -1.3827391607529473e-09 2.4805507817809313e-09 0.0000000000000000e+00  -7.3634717928536641e-10 2.8592591263679214e-09 0.0000000000000000e+00  -5.0536824177159115e-12 2.5063275646924627e-11 0.0000000000000000e+00  -1.3872007937080590e-12 -1.4864198351633752e-11 0.0000000000000000e+00  -4.5935310168288353e-10 -2.1614177911649644e-09 0.0000000000000000e+00  -9.6308752013690723e-10 -2.0155081305060819e-09 0.0000000000000000e+00  -1.3016681151926422e-09 -1.6593292735905757e-09 0.0000000000000000e+00  -1.4996377246535161e-09 -1.3005079015039430e-09 0.0000000000000000e+00  -1.5960672910678972e-09 -9.8313120200321169e-10 0.0000000000000000e+00  -1.6334436337127621e-09 -7.1856560859865856e-10 0.0000000000000000e+00  -1.6421584070646933e-09 -4.9949727158844953e-10 0.0000000000000000e+00  -1.6392120433113340e-09 -3.1477047833655753e-10 0.0000000000000000e+00  -1.6343037431290461e-09 -1.5220317761109720e-10 0.0000000000000000e+00  -1.6320245633776789e-09 -4.8137958868649454e-13 0.0000000000000000e+00  -1.6337398855985638e-09 1.5108413659860460e-10 0.0000000000000000e+00  -1.6381428515739441e-09 3.1316492591222982e-10 0.0000000000000000e+00  -1.6407457760190129e-09 4.9703400332824652e-10 0.0000000000000000e+00  -1.6321838056966521e-09 7.1475418204633311e-10 0.0000000000000000e+00  -1.5950821144679283e-09 9.7799280799732642e-10 0.0000000000000000e+00  -1.4999957324546363e-09 1.2932971599051925e-09 0.0000000000000000e+00  -1.3045233468764405e-09 1.6505714508908763e-09 0.0000000000000000e+00  -9.6524663259159432e-10 2.0069792086131879e-09 0.0000000000000000e+00  -4.8536141200864045e-10 2.2069543207513901e-09 0.0000000000000000e+00  -1.9621418859342103e-12 1.8356099575973908e-11 0.0000000000000000e+00  -9.5199804683357793e-13 -1.1647481856084957e-11 0.0000000000000000e+00  -3.3022388791957694e-10 -1.7026407440712221e-09 0.0000000000000000e+00  -7.1205207798587156e-10 -1.6332620709765549e-09 0.0000000000000000e+00  -1.0044096064333537e-09 -1.4020923550710450e-09 0.0000000000000000e+00  -1.2077226363912521e-09 -1.1479732281229345e-09 0.0000000000000000e+00  -1.3356466544577255e-09 -9.0268378348748529e-10 0.0000000000000000e+00  -1.4104111994139343e-09 -6.8056703821321678e-10 0.0000000000000000e+00  -1.4510708492850282e-09 -4.8438984770569863e-10 0.0000000000000000e+00  -1.4716597328318126e-09 -3.1024714532861103e-10 0.0000000000000000e+00  -1.4808431298152543e-09 -1.5160209719199652e-10 0.0000000000000000e+00  -1.4833140490163850e-09 -8.7311406285984772e-13 0.0000000000000000e+00  -1.4805516531262441e-09 1.4973927119163422e-10 0.0000000000000000e+00  -1.4711505502225902e-09 3.0803355493704327e-10 0.0000000000000000e+00  -1.4505269781654554e-09 4.8159089966227856e-10 0.0000000000000000e+00  -1.4100648185148627e-09 6.7707947380040535e-10 0.0000000000000000e+00  -1.3360000704959444e-09 8.9840307420779400e-10 0.0000000000000000e+00  -1.2091049154063471e-09 1.1428746190832807e-09 0.0000000000000000e+00  -1.0074606993475790e-09 1.3957786659894297e-09 0.0000000000000000e+00  -7.1518562901078469e-10 1.6276662484291254e-09 0.0000000000000000e+00  -3.4876878948420958e-10 1.7340775059712399e-09 0.0000000000000000e+00  -1.4839013009684513e-12 1.4240121576959612e-11 0.0000000000000000e+00  -7.2700149387400730e-13 -9.2052343173114556e-12 0.0000000000000000e+00  -2.5233875220877530e-10 -1.3576017932308416e-09 0.0000000000000000e+00  -5.5205639102656981e-10 -1.3238977121041726e-09 0.0000000000000000e+00  -7.9952860332756169e-10 -1.1674336490191097e-09 0.0000000000000000e+00  -9.9036573755657424e-10 -9.8507817679604993e-10 0.0000000000000000e+00  -1.1266064179158803e-09 -7.9698304640013253e-10 0.0000000000000000e+00  -1.2185773185382470e-09 -6.1565948414727988e-10 0.0000000000000000e+00  -1.2776202459313166e-09 -4.4656364099208443e-10 0.0000000000000000e+00  -1.3131696127295087e-09 -2.8994358092663420e-10 0.0000000000000000e+00  -1.3319112830644065e-09 -1.4289328703198651e-10 0.0000000000000000e+00  -1.3376988633388940e-09 -9.8047265916179519e-13 0.0000000000000000e+00  -1.3318084088742973e-09 1.4085626470999500e-10 0.0000000000000000e+00  -1.3130301763053332e-09 2.8768494503122512e-10 0.0000000000000000e+00  -1.2775694846774416e-09 4.4397384090245473e-10 0.0000000000000000e+00  -1.2188328638572662e-09 6.1266649277304255e-10 0.0000000000000000e+00  -1.1274407965462437e-09 7.9363228765039507e-10 0.0000000000000000e+00  -9.9216716021277863e-10 9.8142804627112521e-10 0.0000000000000000e+00  -8.0268286385842583e-10 1.1633713512376333e-09 0.0000000000000000e+00  -5.5481155662096264e-10 1.3206267642956755e-09 0.0000000000000000e+00  -2.6523284173724639e-10 1.3809498044015900e-09 0.0000000000000000e+00  -1.0711287263534112e-12 1.1119760040786329e-11 0.0000000000000000e+00  -5.7892356190184488e-13 -7.2986690211854193e-12 0.0000000000000000e+00  -2.0151833905499644e-10 -1.0858962492964407e-09 0.0000000000000000e+00  -4.4474509069359625e-10 -1.0703151803156378e-09 0.0000000000000000e+00  -6.5530070376832997e-10 -9.6058746887400514e-10 0.0000000000000000e+00  -8.2828190300720730e-10 -8.2744201101146265e-10 0.0000000000000000e+00  -9.6150145813287110e-10 -6.8331576333894092e-10 0.0000000000000000e+00  -1.0590152607240131e-09 -5.3759265742833059e-10 0.0000000000000000e+00  -1.1268191359975904e-09 -3.9579806430801532e-10 0.0000000000000000e+00  -1.1707048972153478e-09 -2.5980711716542988e-10 0.0000000000000000e+00  -1.1951758949332242e-09 -1.2893886666879763e-10 0.0000000000000000e+00  -1.2030207246594424e-09 -9.9441094274070287e-13 0.0000000000000000e+00  -1.1951887346239589e-09 1.2690664000279347e-10 0.0000000000000000e+00  -1.1707786431218933e-09 2.5765363457341282e-10 0.0000000000000000e+00  -1.1270525207413484e-09 3.9346854170353670e-10 0.0000000000000000e+00  -1.0595526118070924e-09 5.3508140216452757e-10 0.0000000000000000e+00  -9.6253871720373099e-10 6.8067985591225722e-10 0.0000000000000000e+00  -8.3007759025689987e-10 8.2478753766410410e-10 0.0000000000000000e+00  -6.5800293477382302e-10 9.5787511883062261e-10 0.0000000000000000e+00  -4.4681903770278060e-10 1.0682839704360231e-09 0.0000000000000000e+00  -2.1076880383633282e-10 1.1045131107653596e-09 0.0000000000000000e+00  -7.9994296353998021e-13 8.8095500368460077e-12 0.0000000000000000e+00  -4.7968667872128166e-13 -5.7529342677213666e-12 0.0000000000000000e+00  -1.6676035272556385e-10 -8.6420990762048745e-10 0.0000000000000000e+00  -3.6997112955539775e-10 -8.5808944097632269e-10 0.0000000000000000e+00  -5.5142814410113192e-10 -7.7921582517428286e-10 0.0000000000000000e+00  -7.0671376646807328e-10 -6.8081558400653935e-10 0.0000000000000000e+00  -8.3229897500189910e-10 -5.7053589053997520e-10 0.0000000000000000e+00  -9.2905222495042510e-10 -4.5498790903810940e-10 0.0000000000000000e+00  -9.9967271471880214e-10 -3.3880936431539012e-10 0.0000000000000000e+00  -1.0473208130113332e-09 -2.2431271695576797e-10 0.0000000000000000e+00  -1.0747224045544872e-09 -1.1195130840600602e-10 0.0000000000000000e+00  -1.0836706835324686e-09 -9.6328848856458707e-13 0.0000000000000000e+00  -1.0747964972866009e-09 1.1000430891474135e-10 0.0000000000000000e+00  -1.0475039624268977e-09 2.2231078326563587e-10 0.0000000000000000e+00  -1.0000334034433760e-09 3.3673835316433452e-10 0.0000000000000000e+00  -9.2968963628227352e-10 4.5286871142993715e-10 0.0000000000000000e+00  -8.3334045613361980e-10 5.6843924773208916e-10 0.0000000000000000e+00  -7.0830128117368754e-10 6.7884180589879293e-10 0.0000000000000000e+00  -5.5357750460891130e-10 7.7729912182885177e-10 0.0000000000000000e+00  -3.7144810887637544e-10 8.5669287383843809e-10 0.0000000000000000e+00  -1.7357327360927665e-10 8.7953891542778862e-10 0.0000000000000000e+00  -6.3357897842295034e-13 6.9928370179530838e-12 0.0000000000000000e+00  -4.1173782194993171e-13 -4.4531555433739923e-12 0.0000000000000000e+00  -1.4232988091211022e-10 -6.7758629124971434e-10 0.0000000000000000e+00  -3.1662465412390318e-10 -6.7646511281646083e-10 0.0000000000000000e+00  -4.7561674120067707e-10 -6.1918589704504858e-10 0.0000000000000000e+00  -6.1540315136067968e-10 -5.4633960558149080e-10 0.0000000000000000e+00  -7.3219474846103729e-10 -4.6264152271149512e-10 0.0000000000000000e+00  -8.2527575377755039e-10 -3.7261051972404134e-10 0.0000000000000000e+00  -8.9541304706464512e-10 -2.7983306274661490e-10 0.0000000000000000e+00  -9.4402075590531854e-10 -1.8648613749251459e-10 0.0000000000000000e+00  -9.7252404172480214e-10 -9.3496562820620443e-11 0.0000000000000000e+00  -9.8193491918395793e-10 -9.1220895578669708e-13 0.0000000000000000e+00  -9.7262272034504517e-10 9.1666787805829535e-11 0.0000000000000000e+00  -9.4424200240712025e-10 1.8464521999942401e-10 0.0000000000000000e+00  -8.9580281333801835e-10 2.7799033605199846e-10 0.0000000000000000e+00  -8.2589838253761531e-10 3.7080136273207562e-10 0.0000000000000000e+00  -7.3312548531132078e-10 4.6093692563278088e-10 0.0000000000000000e+00  -6.1671325484691136e-10 5.4481904220353920e-10 0.0000000000000000e+00  -4.7726673179323695e-10 6.1775130090406660e-10 0.0000000000000000e+00  -3.1766282456723300e-10 6.7541260564846955e-10 0.0000000000000000e+00  -1.4738663687058890e-10 6.9055963892815176e-10 0.0000000000000000e+00  -5.2137075159645783e-13 5.5021651539295560e-12 0.0000000000000000e+00  -3.6488375677351955e-13 -3.3256557318106200e-12 0.0000000000000000e+00  -1.2502220233003267e-10 -5.1593959898107681e-10 0.0000000000000000e+00  -2.7834587613029956e-10 -5.1747016094646312e-10 0.0000000000000000e+00  -4.2035386941572312e-10 -4.7621981615363151e-10 0.0000000000000000e+00  -5.4747163551593655e-10 -4.2305238723501563e-10 0.0000000000000000e+00  -6.5602753125096604e-10 -3.6088293628059335e-10 0.0000000000000000e+00  -7.4454073985062399e-10 -2.9272757897101669e-10 0.0000000000000000e+00  -8.1267683671062449e-10 -2.2121661414528857e-10 0.0000000000000000e+00  -8.6075157342517016e-10 -1.4815818743404780e-10 0.0000000000000000e+00  -8.8930808050109209e-10 -7.4564575561923058e-11 0.0000000000000000e+00  -8.9880080037168522e-10 -8.5691515974224868e-13 0.0000000000000000e+00  -8.8940715288817933e-10 7.2855009825485450e-11 0.0000000000000000e+00  -8.6096530846162115e-10 1.4646502449206274e-10 0.0000000000000000e+00  -8.1303462940553226e-10 2.1956283758592955e-10 0.0000000000000000e+00  -7.4508162991666848e-10 2.9115465085282420e-10 0.0000000000000000e+00  -6.5679296047499029e-10 3.5945556872433796e-10 0.0000000000000000e+00  -5.4849393318734555e-10 4.2182889524517935e-10 0.0000000000000000e+00  -4.2157991511729446e-10 4.7508065531942861e-10 0.0000000000000000e+00  -2.7906674386718497e-10 5.1661322864315636e-10 0.0000000000000000e+00  -1.2872992820797969e-10 5.2723227427255364e-10 0.0000000000000000e+00  -4.4259104285138255e-13 4.2399488765210592e-12 0.0000000000000000e+00  -3.3369278000839373e-13 -2.3181191109972226e-12 0.0000000000000000e+00  -1.1297782153763003e-10 -3.7202669128711324e-10 0.0000000000000000e+00  -2.5136192556017864e-10 -3.7496716467036639e-10 0.0000000000000000e+00  -3.8097494559487716e-10 -3.4633616408726905e-10 0.0000000000000000e+00  -4.9836569947606647e-10 -3.0908927826568315e-10 0.0000000000000000e+00  -6.0008097621053991e-10 -2.6501468912305455e-10 0.0000000000000000e+00  -6.8428565115835993e-10 -2.1604859742795539e-10 0.0000000000000000e+00  -7.5003464864879910e-10 -1.6401213918110909e-10 0.0000000000000000e+00  -7.9698160132562452e-10 -1.1026758583047003e-10 0.0000000000000000e+00  -8.2510655738308141e-10 -5.5696275986646075e-11 0.0000000000000000e+00  -8.3449380706335166e-10 -8.0709553842212596e-13 0.0000000000000000e+00  -8.2519078777529684e-10 5.4092249156405898e-11 0.0000000000000000e+00  -7.9715969485686245e-10 1.0869658288813739e-10 0.0000000000000000e+00  -7.5032428835369503e-10 1.6250461171347948e-10 0.0000000000000000e+00  -6.8470906201344938e-10 2.1464751921443724e-10 0.0000000000000000e+00  -6.0065937533563544e-10 2.6377725989521497e-10 0.0000000000000000e+00  -4.9911178456635019e-10 3.0805714828699001e-10 0.0000000000000000e+00  -3.8184101038522649e-10 3.4537806962893814e-10 0.0000000000000000e+00  -2.5184603661171058e-10 3.7422421172046988e-10 0.0000000000000000e+00  -1.1558747412551739e-10 3.8214280043048185e-10 0.0000000000000000e+00  -3.8703683058975278e-13 3.1386501379373009e-12 0.0000000000000000e+00  -3.1514092866980495e-13 -1.3902665330526995e-12 0.0000000000000000e+00  -1.0509771054582878e-10 -2.4028566166301168e-10 0.0000000000000000e+00  -2.3339915310877767e-10 -2.4400346045381268e-10 0.0000000000000000e+00  -3.5457776177205711e-10 -2.2591492124244029e-10 0.0000000000000000e+00  -4.6512045830662679e-10 -2.0222821361468658e-10 0.0000000000000000e+00  -5.6178480597654689e-10 