<?xml version="1.0"?>
<VTKFile type="UnstructuredGrid"  version="0.1"  >
<UnstructuredGrid>
<Piece  NumberOfPoints="651" NumberOfCells="1200">
<Points>
<DataArray  type="Float64"  NumberOfComponents="3"  format="ascii">0 0 0  50000 0 0  100000 0 0  150000 0 0  200000 0 0  250000 0 0  300000 0 0  350000 0 0  400000 0 0  450000 0 0  500000 0 0  550000 0 0  600000 0 0  650000 0 0  700000 0 0  750000 0 0  800000 0 0  850000 0 0  900000 0 0  950000 0 0  1000000 0 0  0 50000 0  50000 50000 0  100000 50000 0  150000 50000 0  200000 50000 0  250000 50000 0  300000 50000 0  350000 50000 0  400000 50000 0  450000 50000 0  500000 50000 0  550000 50000 0  600000 50000 0  650000 50000 0  700000 50000 0  750000 50000 0  800000 50000 0  850000 50000 0  900000 50000 0  950000 50000 0  1000000 50000 0  0 100000 0  50000 100000 0  100000 100000 0  150000 100000 0  200000 100000 0  250000 100000 0  300000 100000 0  350000 100000 0  400000 100000 0  450000 100000 0  500000 100000 0  550000 100000 0  600000 100000 0  650000 100000 0  700000 100000 0  750000 100000 0  800000 100000 0  850000 100000 0  900000 100000 0  950000 100000 0  1000000 100000 0  0 150000 0  50000 150000 0  100000 150000 0  150000 150000 0  200000 150000 0  250000 150000 0  300000 150000 0  350000 150000 0  400000 150000 0  450000 150000 0  500000 150000 0  550000 150000 0  600000 150000 0  650000 150000 0  700000 150000 0  750000 150000 0  800000 150000 0  850000 150000 0  900000 150000 0  950000 150000 0  1000000 150000 0  0 200000 0  50000 200000 0  100000 200000 0  150000 200000 0  200000 200000 0  250000 200000 0  300000 200000 0  350000 200000 0  400000 200000 0  450000 200000 0  500000 200000 0  550000 200000 0  600000 200000 0  650000 200000 0  700000 200000 0  750000 200000 0  800000 200000 0  850000 200000 0  900000 200000 0  950000 200000 0  1000000 200000 0  0 250000 0  50000 250000 0  100000 250000 0  150000 250000 0  200000 250000 0  250000 250000 0  300000 250000 0  350000 250000 0  400000 250000 0  450000 250000 0  500000 250000 0  550000 250000 0  600000 250000 0  650000 250000 0  700000 250000 0  750000 250000 0  800000 250000 0  850000 250000 0  900000 250000 0  950000 250000 0  1000000 250000 0  0 300000 0  50000 300000 0  100000 300000 0  150000 300000 0  200000 300000 0  250000 300000 0  300000 300000 0  350000 300000 0  400000 300000 0  450000 300000 0  500000 300000 0  550000 300000 0  600000 300000 0  650000 300000 0  700000 300000 0  750000 300000 0  800000 300000 0  850000 300000 0  900000 300000 0  950000 300000 0  1000000 300000 0  0 350000 0  50000 350000 0  100000 350000 0  150000 350000 0  200000 350000 0  250000 350000 0  300000 350000 0  350000 350000 0  400000 350000 0  450000 350000 0  500000 350000 0  550000 350000 0  600000 350000 0  650000 350000 0  700000 350000 0  750000 350000 0  800000 350000 0  850000 350000 0  900000 350000 0  950000 350000 0  1000000 350000 0  0 400000 0  50000 400000 0  100000 400000 0  150000 400000 0  200000 400000 0  250000 400000 0  300000 400000 0  350000 400000 0  400000 400000 0  450000 400000 0  500000 400000 0  550000 400000 0  600000 400000 0  650000 400000 0  700000 400000 0  750000 400000 0  800000 400000 0  850000 400000 0  900000 400000 0  950000 400000 0  1000000 400000 0  0 450000 0  50000 450000 0  100000 450000 0  150000 450000 0  200000 450000 0  250000 450000 0  300000 450000 0  350000 450000 0  400000 450000 0  450000 450000 0  500000 450000 0  550000 450000 0  600000 450000 0  650000 450000 0  700000 450000 0  750000 450000 0  800000 450000 0  850000 450000 0  900000 450000 0  950000 450000 0  1000000 450000 0  0 500000 0  50000 500000 0  100000 500000 0  150000 500000 0  200000 500000 0  250000 500000 0  300000 500000 0  350000 500000 0  400000 500000 0  450000 500000 0  500000 500000 0  550000 500000 0  600000 500000 0  650000 500000 0  700000 500000 0  750000 500000 0  800000 500000 0  850000 500000 0  900000 500000 0  950000 500000 0  1000000 500000 0  0 550000 0  50000 550000 0  100000 550000 0  150000 550000 0  200000 550000 0  250000 550000 0  300000 550000 0  350000 550000 0  400000 550000 0  450000 550000 0  500000 550000 0  550000 550000 0  600000 550000 0  650000 550000 0  700000 550000 0  750000 550000 0  800000 550000 0  850000 550000 0  900000 550000 0  950000 550000 0  1000000 550000 0  0 600000 0  50000 600000 0  100000 600000 0  150000 600000 0  200000 600000 0  250000 600000 0  300000 600000 0  350000 600000 0  400000 600000 0  450000 600000 0  500000 600000 0  550000 600000 0  600000 600000 0  650000 600000 0  700000 600000 0  750000 600000 0  800000 600000 0  850000 600000 0  900000 600000 0  950000 600000 0  1000000 600000 0  0 650000 0  50000 650000 0  100000 650000 0  150000 650000 0  200000 650000 0  250000 650000 0  300000 650000 0  350000 650000 0  400000 650000 0  450000 650000 0  500000 650000 0  550000 650000 0  600000 650000 0  650000 650000 0  700000 650000 0  750000 650000 0  800000 650000 0  850000 650000 0  900000 650000 0  950000 650000 0  1000000 650000 0  0 700000 0  50000 700000 0  100000 700000 0  150000 700000 0  200000 700000 0  250000 700000 0  300000 700000 0  350000 700000 0  400000 700000 0  450000 700000 0  500000 700000 0  550000 700000 0  600000 700000 0  650000 700000 0  700000 700000 0  750000 700000 0  800000 700000 0  850000 700000 0  900000 700000 0  950000 700000 0  1000000 700000 0  0 750000 0  50000 750000 0  100000 750000 0  150000 750000 0  200000 750000 0  250000 750000 0  300000 750000 0  350000 750000 0  400000 750000 0  450000 750000 0  500000 750000 0  550000 750000 0  600000 750000 0  650000 750000 0  700000 750000 0  750000 750000 0  800000 750000 0  850000 750000 0  900000 750000 0  950000 750000 0  1000000 750000 0  0 800000 0  50000 800000 0  100000 800000 0  150000 800000 0  200000 800000 0  250000 800000 0  300000 800000 0  350000 800000 0  400000 800000 0  450000 800000 0  500000 800000 0  550000 800000 0  600000 800000 0  650000 800000 0  700000 800000 0  750000 800000 0  800000 800000 0  850000 800000 0  900000 800000 0  950000 800000 0  1000000 800000 0  0 850000 0  50000 850000 0  100000 850000 0  150000 850000 0  200000 850000 0  250000 850000 0  300000 850000 0  350000 850000 0  400000 850000 0  450000 850000 0  500000 850000 0  550000 850000 0  600000 850000 0  650000 850000 0  700000 850000 0  750000 850000 0  800000 850000 0  850000 850000 0  900000 850000 0  950000 850000 0  1000000 850000 0  0 900000 0  50000 900000 0  100000 900000 0  150000 900000 0  200000 900000 0  250000 900000 0  300000 900000 0  350000 900000 0  400000 900000 0  450000 900000 0  500000 900000 0  550000 900000 0  600000 900000 0  650000 900000 0  700000 900000 0  750000 900000 0  800000 900000 0  850000 900000 0  900000 900000 0  950000 900000 0  1000000 900000 0  0 950000 0  50000 950000 0  100000 950000 0  150000 950000 0  200000 950000 0  250000 950000 0  300000 950000 0  350000 950000 0  400000 950000 0  450000 950000 0  500000 950000 0  550000 950000 0  600000 950000 0  650000 950000 0  700000 950000 0  750000 950000 0  800000 950000 0  850000 950000 0  900000 950000 0  950000 950000 0  1000000 950000 0  0 1000000 0  50000 1000000 0  100000 1000000 0  150000 1000000 0  200000 1000000 0  250000 1000000 0  300000 1000000 0  350000 1000000 0  400000 1000000 0  450000 1000000 0  500000 1000000 0  550000 1000000 0  600000 1000000 0  650000 1000000 0  700000 1000000 0  750000 1000000 0  800000 1000000 0  850000 1000000 0  900000 1000000 0  950000 1000000 0  1000000 1000000 0  0 1050000 0  50000 1050000 0  100000 1050000 0  150000 1050000 0  200000 1050000 0  250000 1050000 0  300000 1050000 0  350000 1050000 0  400000 1050000 0  450000 1050000 0  500000 1050000 0  550000 1050000 0  600000 1050000 0  650000 1050000 0  700000 1050000 0  750000 1050000 0  800000 1050000 0  850000 1050000 0  900000 1050000 0  950000 1050000 0  1000000 1050000 0  0 1100000 0  50000 1100000 0  100000 1100000 0  150000 1100000 0  200000 1100000 0  250000 1100000 0  300000 1100000 0  350000 1100000 0  400000 1100000 0  450000 1100000 0  500000 1100000 0  550000 1100000 0  600000 1100000 0  650000 1100000 0  700000 1100000 0  750000 1100000 0  800000 1100000 0  850000 1100000 0  900000 1100000 0  950000 1100000 0  1000000 1100000 0  0 1150000 0  50000 1150000 0  100000 1150000 0  150000 1150000 0  200000 1150000 0  250000 1150000 0  300000 1150000 0  350000 1150000 0  400000 1150000 0  450000 1150000 0  500000 1150000 0  550000 1150000 0  600000 1150000 0  650000 1150000 0  700000 1150000 0  750000 1150000 0  800000 1150000 0  850000 1150000 0  900000 1150000 0  950000 1150000 0  1000000 1150000 0  0 1200000 0  50000 1200000 0  100000 1200000 0  150000 1200000 0  200000 1200000 0  250000 1200000 0  300000 1200000 0  350000 1200000 0  400000 1200000 0  450000 1200000 0  500000 1200000 0  550000 1200000 0  600000 1200000 0  650000 1200000 0  700000 1200000 0  750000 1200000 0  800000 1200000 0  850000 1200000 0  900000 1200000 0  950000 1200000 0  1000000 1200000 0  0 1250000 0  50000 1250000 0  100000 1250000 0  150000 1250000 0  200000 1250000 0  250000 1250000 0  300000 1250000 0  350000 1250000 0  400000 1250000 0  450000 1250000 0  500000 1250000 0  550000 1250000 0  600000 1250000 0  650000 1250000 0  700000 1250000 0  750000 1250000 0  800000 1250000 0  850000 1250000 0  900000 1250000 0  950000 1250000 0  1000000 1250000 0  0 1300000 0  50000 1300000 0  100000 1300000 0  150000 1300000 0  200000 1300000 0  250000 1300000 0  300000 1300000 0  350000 1300000 0  400000 1300000 0  450000 1300000 0  500000 1300000 0  550000 1300000 0  600000 1300000 0  650000 1300000 0  700000 1300000 0  750000 1300000 0  800000 1300000 0  850000 1300000 0  900000 1300000 0  950000 1300000 0  1000000 1300000 0  0 1350000 0  50000 1350000 0  100000 1350000 0  150000 1350000 0  200000 1350000 0  250000 1350000 0  300000 1350000 0  350000 1350000 0  400000 1350000 0  450000 1350000 0  500000 1350000 0  550000 1350000 0  600000 1350000 0  650000 1350000 0  700000 135
[...]
<PointData  Vectors="f_25021"> 
<DataArray  type="Float64"  Name="f_25021"  NumberOfComponents="3" format="ascii">-1.4232230050773069e-10 -1.0178276580559679e-10 0.0000000000000000e+00  7.9894370234075099e-08 -8.6299905879151393e-11 0.0000000000000000e+00  7.9974144106822533e-08 -8.1218714193486637e-12 0.0000000000000000e+00  7.9966315956465164e-08 -2.8886169268737536e-12 0.0000000000000000e+00  7.9976296117526803e-08 -2.2533986442975983e-12 0.0000000000000000e+00  7.9980291212371901e-08 -1.0346819406505590e-12 0.0000000000000000e+00  7.9982463746395355e-08 -6.2539243830182722e-13 0.0000000000000000e+00  7.9983926248837428e-08 -3.9410818084082291e-13 0.0000000000000000e+00  7.9984794984049584e-08 -2.1312420215881218e-13 0.0000000000000000e+00  7.9985209049584980e-08 -6.3636859636060793e-14 0.0000000000000000e+00  7.9985237976488590e-08 7.8251666891335373e-14 0.0000000000000000e+00  7.9984886982774551e-08 2.3473504030767307e-13 0.0000000000000000e+00  7.9984106204320636e-08 4.3463739671399621e-13 0.0000000000000000e+00  7.9982756780726822e-08 7.3139432082684135e-13 0.0000000000000000e+00  7.9980551826519853e-08 1.1437989154620375e-12 0.0000000000000000e+00  7.9977393221449126e-08 1.6501436635831556e-12 0.0000000000000000e+00  7.9971568444636794e-08 5.2513240803235226e-12 0.0000000000000000e+00  7.9952287616797966e-08 1.2149848721623339e-11 0.0000000000000000e+00  7.9974855052950865e-08 -1.8174094991273628e-11 0.0000000000000000e+00  7.9478625636866427e-08 4.8870669851683336e-10 0.0000000000000000e+00  -6.6591172780168417e-10 6.3226184067618001e-10 0.0000000000000000e+00  -1.1183452050391525e-10 -9.4673787252591455e-11 0.0000000000000000e+00  -1.0022795810627301e-08 -4.4604433949891200e-09 0.0000000000000000e+00  -4.0828086679371257e-09 -2.4146844650683637e-09 0.0000000000000000e+00  -4.0368787500034264e-09 -8.7269785110095024e-10 0.0000000000000000e+00  -3.0520061903242245e-09 -4.6456934465745102e-10 0.0000000000000000e+00  -2.5207622957066793e-09 -2.3246426859293294e-10 0.0000000000000000e+00  -2.2044162655005435e-09 -1.0385398743493651e-10 0.0000000000000000e+00  -2.0008157242810953e-09 -2.3807475124397433e-11 0.0000000000000000e+00  -1.8736806728318855e-09 3.2441343960188780e-11 0.0000000000000000e+00  -1.8042589882128415e-09 7.6579820925440695e-11 0.0000000000000000e+00  -1.7829445856041071e-09 1.1566618337357784e-10 0.0000000000000000e+00  -1.8068725406773740e-09 1.5508437959016315e-10 0.0000000000000000e+00  -1.8791056307494289e-09 2.0029961143121376e-10 0.0000000000000000e+00  -2.0095785595735638e-09 2.5869502812544075e-10 0.0000000000000000e+00  -2.2186288352828442e-09 3.4259776504889610e-10 0.0000000000000000e+00  -2.5429579361041187e-09 4.7617131172159257e-10 0.0000000000000000e+00  -3.0347997454333623e-09 7.1604383886500861e-10 0.0000000000000000e+00  -3.8491225050342944e-09 1.2078065011490152e-09 0.0000000000000000e+00  -6.3115361658721806e-09 2.3493165488881386e-09 0.0000000000000000e+00  -5.5077886834215685e-09 5.3282621646473609e-09 0.0000000000000000e+00  -5.0402866366138428e-10 5.0351945490208631e-10 0.0000000000000000e+00  -1.9506367692599689e-11 -3.0532888987581703e-11 0.0000000000000000e+00  -2.8475972765990745e-09 -4.4159817103291784e-09 0.0000000000000000e+00  -4.2457085608403154e-09 -3.2498077339890404e-09 0.0000000000000000e+00  -3.9092752494652655e-09 -2.0569766448469140e-09 0.0000000000000000e+00  -3.4789247536170624e-09 -1.1743297770501867e-09 0.0000000000000000e+00  -3.1379721928706605e-09 -7.5199687038062696e-10 0.0000000000000000e+00  -2.8964309743582381e-09 -5.0432849002461881e-10 0.0000000000000000e+00  -2.7279004269036923e-09 -3.4083684380129007e-10 0.0000000000000000e+00  -2.6180716194249995e-09 -2.2333655050070182e-10 0.0000000000000000e+00  -2.5560839096553771e-09 -1.3020858972961990e-10 0.0000000000000000e+00  -2.5356411426893212e-09 -4.7677790948667893e-11 0.0000000000000000e+00  -2.5546474316343029e-09 3.4811039274137587e-11 0.0000000000000000e+00  -2.6148669257099620e-09 1.2773900555718341e-10 0.0000000000000000e+00  -2.7221040905586635e-09 2.4454608749279825e-10 0.0000000000000000e+00  -2.8866682269906095e-09 4.0621187981071516e-10 0.0000000000000000e+00  -3.1235665342482754e-09 6.5040967222445060e-10 0.0000000000000000e+00  -3.4543326245206546e-09 1.0506163258943681e-09 0.0000000000000000e+00  -3.8928508378195977e-09 1.7548501446956510e-09 0.0000000000000000e+00  -4.0425756207760561e-09 3.1191197319293393e-09 0.0000000000000000e+00  -3.1483333241192833e-09 6.1554642131841094e-09 0.0000000000000000e+00  6.7698840841550062e-12 2.1641140298004968e-11 0.0000000000000000e+00  -4.2379174495434685e-12 -2.9481285027231422e-11 0.0000000000000000e+00  -1.1052169775941582e-09 -3.7576925213744753e-09 0.0000000000000000e+00  -2.1822085625517896e-09 -2.9876373579244761e-09 0.0000000000000000e+00  -2.4372862221650242e-09 -2.0110605112293714e-09 0.0000000000000000e+00  -2.3726277273237327e-09 -1.3531662139868489e-09 0.0000000000000000e+00  -2.2613307017801732e-09 -9.1169033570445051e-10 0.0000000000000000e+00  -2.1363645718742905e-09 -6.1597923126677671e-10 0.0000000000000000e+00  -2.0345017208398958e-09 -4.0634641045839142e-10 0.0000000000000000e+00  -1.9621885513337814e-09 -2.4824189201797758e-10 0.0000000000000000e+00  -1.9193109333983771e-09 -1.1901267533133163e-10 0.0000000000000000e+00  -1.9047589434947167e-09 -2.7795269572206613e-12 0.0000000000000000e+00  -1.9179878416965005e-09 1.1333935666969566e-10 0.0000000000000000e+00  -1.9593610155682547e-09 2.4213730660277203e-10 0.0000000000000000e+00  -2.0297785464559492e-09 3.9916866874951550e-10 0.0000000000000000e+00  -2.1291724329152139e-09 6.0645466402941492e-10 0.0000000000000000e+00  -2.2522324835717986e-09 8.9801938606966118e-10 0.0000000000000000e+00  -2.3752088584384472e-09 1.3282903280653406e-09 0.0000000000000000e+00  -2.4102000380416321e-09 1.9835544183632479e-09 0.0000000000000000e+00  -2.1243740812697174e-09 2.9475429330341766e-09 0.0000000000000000e+00  -1.3120571403412879e-09 3.6963421292702024e-09 0.0000000000000000e+00  -1.2464235185183488e-11 4.5134839771780442e-11 0.0000000000000000e+00  -2.6005517807093804e-12 -2.0472872076309601e-11 0.0000000000000000e+00  -6.7221890364609007e-10 -2.7267629819768639e-09 0.0000000000000000e+00  -1.3480851451453352e-09 -2.4149665052599626e-09 0.0000000000000000e+00  -1.6889600302848993e-09 -1.8491028631867399e-09 0.0000000000000000e+00  -1.8333705086213956e-09 -1.3584383575418337e-09 0.0000000000000000e+00  -1.8521461839119212e-09 -9.7813868195731696e-10 0.0000000000000000e+00  -1.8253039030582169e-09 -6.8698397707358811e-10 0.0000000000000000e+00  -1.7861096630032218e-09 -4.6470295259274879e-10 0.0000000000000000e+00  -1.7517870986016292e-09 -2.8738620884870960e-10 0.0000000000000000e+00  -1.7292336581861540e-09 -1.3702968933656603e-10 0.0000000000000000e+00  -1.7211737298600115e-09 6.6716065390121462e-13 0.0000000000000000e+00  -1.7282985827222679e-09 1.3819270358258192e-10 0.0000000000000000e+00  -1.7498980494887845e-09 2.8798014122925416e-10 0.0000000000000000e+00  -1.7832872951746720e-09 4.6417463819726460e-10 0.0000000000000000e+00  -1.8216789799126754e-09 6.8443396903059642e-10 0.0000000000000000e+00  -1.8492203040900330e-09 9.7131839384204816e-10 0.0000000000000000e+00  -1.8305549114908502e-09 1.3510193417447683e-09 0.0000000000000000e+00  -1.6949959944310440e-09 1.8406040847409491e-09 0.0000000000000000e+00  -1.3425714058173975e-09 2.4002665794046604e-09 0.0000000000000000e+00  -7.2092829073796251e-10 2.7558705042590968e-09 0.0000000000000000e+00  -5.2822803855799468e-12 2.5709258825711129e-11 0.0000000000000000e+00  -1.4729751888622084e-12 -1.5271683095911975e-11 0.0000000000000000e+00  -4.4599946578539631e-10 -2.0833241169266778e-09 0.0000000000000000e+00  -9.3345945316976110e-10 -1.9510000209297259e-09 0.0000000000000000e+00  -1.2609400677160837e-09 -1.6065028989379901e-09 0.0000000000000000e+00  -1.4526398937606900e-09 -1.2591572529184495e-09 0.0000000000000000e+00  -1.5462331976771965e-09 -9.5193134065780568e-10 0.0000000000000000e+00  -1.5824823441852710e-09 -6.9588480065223808e-10 0.0000000000000000e+00  -1.5910278725165246e-09 -4.8377355720133781e-10 0.0000000000000000e+00  -1.5882494428367698e-09 -3.0488092479281444e-10 0.0000000000000000e+00  -1.5835312163412396e-09 -1.4743281225044607e-10 0.0000000000000000e+00  -1.5813234856214502e-09 -4.8180469935579575e-13 0.0000000000000000e+00  -1.5829486993782350e-09 1.4630799811161360e-10 0.0000000000000000e+00  -1.5871420662648807e-09 3.0325321095689747e-10 0.0000000000000000e+00  -1.5895608542114512e-09 4.8124819477361213e-10 0.0000000000000000e+00  -1.5811474301632284e-09 6.9194675499864228e-10 0.0000000000000000e+00  -1.5451117391749249e-09 9.4662340408027417e-10 0.0000000000000000e+00  -1.4530313200302986e-09 1.2516475889709550e-09 0.0000000000000000e+00  -1.2640045602988074e-09 1.5974827586738796e-09 0.0000000000000000e+00  -9.3642428345893597e-10 1.9426217259903438e-09 0.0000000000000000e+00  -4.7362878385434029e-10 2.1286264230402024e-09 0.0000000000000000e+00  -2.0702897884571743e-12 1.8839519190363336e-11 0.0000000000000000e+00  -1.0101441964505040e-12 -1.1968810571194960e-11 0.0000000000000000e+00  -3.2100537270625446e-10 -1.6411926225717116e-09 0.0000000000000000e+00  -6.9054453879515409e-10 -1.5811045008452725e-09 0.0000000000000000e+00  -9.7338145185841164e-10 -1.3576841491628443e-09 0.0000000000000000e+00  -1.1701049026834608e-09 -1.1115755953480045e-09 0.0000000000000000e+00  -1.2940045946548142e-09 -8.7408895927486664e-10 0.0000000000000000e+00  -1.3664419775842164e-09 -6.5904765486665136e-10 0.0000000000000000e+00  -1.4058650843592716e-09 -4.6911828924666972e-10 0.0000000000000000e+00  -1.4258470046469113e-09 -3.0049734380356561e-10 0.0000000000000000e+00  -1.4347647685194111e-09 -1.4686609297701957e-10 0.0000000000000000e+00  -1.4371585029300650e-09 -8.9803477532829507e-13 0.0000000000000000e+00  -1.4344621321401700e-09 1.4494887069154634e-10 0.0000000000000000e+00  -1.4253178737860148e-09 2.9821440528149988e-10 0.0000000000000000e+00  -1.4052949238566787e-09 4.6622743013873006e-10 0.0000000000000000e+00  -1.3660672892709494e-09 6.5543526138758125e-10 0.0000000000000000e+00  -1.2943417682685084e-09 8.6962185350751857e-10 0.0000000000000000e+00  -1.1715567167946078e-09 1.1062370699805775e-09 0.0000000000000000e+00  -9.7656027226437606e-10 1.3511922464528740e-09 0.0000000000000000e+00  -6.9408126294743775e-10 1.5758014439770088e-09 0.0000000000000000e+00  -3.4035455023040829e-10 1.6734629085014838e-09 0.0000000000000000e+00  -1.5527177307846192e-12 1.4628900241881819e-11 0.0000000000000000e+00  -7.7153522951833176e-13 -9.4640127311171890e-12 0.0000000000000000e+00  -2.4547176580961562e-10 -1.3089107427465572e-09 0.0000000000000000e+00  -5.3566916215198776e-10 -1.2819012985538524e-09 0.0000000000000000e+00  -7.7514669597634870e-10 -1.1306152313535090e-09 0.0000000000000000e+00  -9.5980298900196442e-10 -9.5390581386723089e-10 0.0000000000000000e+00  -1.0916933945128095e-09 -7.7175784270864482e-10 0.0000000000000000e+00  -1.1807653079161706e-09 -5.9620148004292958e-10 0.0000000000000000e+00  -1.2379622256947019e-09 -4.3248204702353503e-10 0.0000000000000000e+00  -1.2724100160200329e-09 -2.8083019746309823e-10 0.0000000000000000e+00  -1.2905726790158962e-09 -1.3843703981375820e-10 0.0000000000000000e+00  -1.2961792999018140e-09 -1.0165726458543239e-12 0.0000000000000000e+00  -1.2904651492027111e-09 1.3632447048328848e-10 0.0000000000000000e+00  -1.2722627370688118e-09 2.7848697193247639e-10 0.0000000000000000e+00  -1.2379059935855703e-09 4.2979267090265596e-10 0.0000000000000000e+00  -1.1810255240816422e-09 5.9309170443229231e-10 0.0000000000000000e+00  -1.0925628283054190e-09 7.6826960462352578e-10 0.0000000000000000e+00  -9.6167623418622614e-10 9.5009869498611467e-10 0.0000000000000000e+00  -7.7838629746818936e-10 1.1264096446406674e-09 0.0000000000000000e+00  -5.3867322785520471e-10 1.2788208559234637e-09 0.0000000000000000e+00  -2.5893055894521177e-10 1.3329110323533774e-09 0.0000000000000000e+00  -1.1286280880241963e-12 1.1430272262738447e-11 0.0000000000000000e+00  -6.1500025280726122e-13 -7.5055979092052797e-12 0.0000000000000000e+00  -1.9615026095039150e-10 -1.0471221398660704e-09 0.0000000000000000e+00  -4.3170602530844110e-10 -1.0365133930784631e-09 0.0000000000000000e+00  -6.3549972466431671e-10 -9.3038689770133288e-10 0.0000000000000000e+00  -8.0290762630761636e-10 -8.0131473773410065e-10 0.0000000000000000e+00  -9.3187593144517610e-10 -6.6172035100112819e-10 0.0000000000000000e+00  -1.0262970725594824e-09 -5.2061808966904843e-10 0.0000000000000000e+00  -1.0919627383230607e-09 -3.8332304419054152e-10 0.0000000000000000e+00  -1.1344698532774650e-09 -2.5164456790086910e-10 0.0000000000000000e+00  -1.1581746185657412e-09 -1.2492286303935379e-10 0.0000000000000000e+00  -1.1657738005620930e-09 -1.0322011179486397e-12 0.0000000000000000e+00  -1.1581871814304093e-09 1.2281328819166961e-10 0.0000000000000000e+00  -1.1345452183168684e-09 2.4940841097969227e-10 0.0000000000000000e+00  -1.0922034673113464e-09 3.8090396967318275e-10 0.0000000000000000e+00  -1.0268559440105720e-09 5.1801045342678490e-10 0.0000000000000000e+00  -9.3295784041814988e-10 6.5898481932118819e-10 0.0000000000000000e+00  -8.0477514550061516e-10 7.9855588034743822e-10 0.0000000000000000e+00  -6.3827499772281412e-10 9.2757618836972607e-10 0.0000000000000000e+00  -4.3395592055784739e-10 1.0346283514649708e-09 0.0000000000000000e+00  -2.0580294330722959e-10 1.0662164301541175e-09 0.0000000000000000e+00  -8.4498265294655731e-13 9.0569539544460376e-12 0.0000000000000000e+00  -5.0977254996745684e-13 -5.9169017207558879e-12 0.0000000000000000e+00  -1.6239551171803972e-10 -8.3342425299450116e-10 0.0000000000000000e+00  -3.5922657779807258e-10 -8.3107319703435391e-10 0.0000000000000000e+00  -5.3488849569730304e-10 -7.5478333361508802e-10 0.0000000000000000e+00  -6.8519715335392466e-10 -6.5936645003704216e-10 0.0000000000000000e+00  -8.0678347840510962e-10 -5.5253665212325466e-10 0.0000000000000000e+00  -9.0046575968064462e-10 -4.4064050462126870e-10 0.0000000000000000e+00  -9.6885157299825363e-10 -3.2814196547534180e-10 0.0000000000000000e+00  -1.0149962088792342e-09 -2.1727288780793022e-10 0.0000000000000000e+00  -1.0415352381184571e-09 -1.0847124249228608e-10 0.0000000000000000e+00  -1.0502034796424551e-09 -9.9972210585410432e-13 0.0000000000000000e+00  -1.0416119470797239e-09 1.0645054022999349e-10 0.0000000000000000e+00  -1.0151861072837311e-09 2.1519531649090251e-10 0.0000000000000000e+00  -9.6922654083054234e-10 3.2599328119232461e-10 0.0000000000000000e+00  -9.0112966540871235e-10 4.3844370194485762e-10 0.0000000000000000e+00  -8.0786893895419365e-10 5.5036508263848533e-10 0.0000000000000000e+00  -6.8684718381175457e-10 6.5731740787376915e-10 0.0000000000000000e+00  -5.3709669506798566e-10 7.5279525316241867e-10 0.0000000000000000e+00  -3.6083070338164075e-10 8.2979814990204372e-10 0.0000000000000000e+00  -1.6949963475969665e-10 8.4914292831709923e-10 0.0000000000000000e+00  -6.6962450381278675e-13 7.1906741683520606e-12 0.0000000000000000e+00  -4.3762722304350276e-13 -4.5806557365472151e-12 0.0000000000000000e+00  -1.3866094478939711e-10 -6.5346993997526612e-10 0.0000000000000000e+00  -3.0750049009130945e-10 -6.5521641028876614e-10 0.0000000000000000e+00  -4.6144002128763757e-10 -5.9981715036582468e-10 0.0000000000000000e+00  -5.9676740203694932e-10 -5.2916341879909618e-10 0.0000000000000000e+00  -7.0984983012902710e-10 -4.4807268004903395e-10 0.0000000000000000e+00  -7.9997932284100582e-10 -3.6087939117095457e-10 0.0000000000000000e+00  -8.6789618487123810e-10 -2.7103570167753433e-10 0.0000000000000000e+00  -9.1496777278609360e-10 -1.8064354251978119e-10 0.0000000000000000e+00  -9.4257223933396206e-10 -9.0598461593458016e-11 0.0000000000000000e+00  -9.5168859775555792e-10 -9.4628853759932020e-13 0.0000000000000000e+00  -9.4267481429814000e-10 8.8700461786722888e-11 0.0000000000000000e+00  -9.1519793961857092e-10 1.7873446499260079e-10 0.0000000000000000e+00  -8.6830200924933034e-10 2.6912595513278850e-10 0.0000000000000000e+00  -8.0062791213810405e-10 3.5900654016083191e-10 0.0000000000000000e+00  -7.1081913490943738e-10 4.4630941236323582e-10 0.0000000000000000e+00  -5.9812774951180337e-10 5.2758477256548113e-10 0.0000000000000000e+00  -4.6313450582586508e-10 5.9832582393399503e-10 0.0000000000000000e+00  -3.0862986586798638e-10 6.5426685827310571e-10 0.0000000000000000e+00  -1.4393094672369569e-10 6.6677547527962122e-10 0.0000000000000000e+00  -5.5152245744836152e-13 5.6588417226227539e-12 0.0000000000000000e+00  -3.8785287348202129e-13 -3.4212195790469048e-12 0.0000000000000000e+00  -1.2184480347601037e-10 -4.9756261376441556e-10 0.0000000000000000e+00  -2.7037645049449261e-10 -5.0124285035410392e-10 0.0000000000000000e+00  -4.0789065262202050e-10 -4.6135443183011498e-10 0.0000000000000000e+00  -5.3097051180486133e-10 -4.0977818701347500e-10 0.0000000000000000e+00  -6.3608812491044182e-10 -3.4953939060840487e-10 0.0000000000000000e+00  -7.2179919556129112e-10 -2.8352809661951133e-10 0.0000000000000000e+00  -7.8777965851942919e-10 -2.1427553386512800e-10 0.0000000000000000e+00  -8.3433498015469457e-10 -1.4352776171757571e-10 0.0000000000000000e+00  -8.6199052295555539e-10 -7.2263132689372558e-11 0.0000000000000000e+00  -8.7118605502034282e-10 -8.8842376958448864e-13 0.0000000000000000e+00  -8.6209367600447210e-10 7.0490907115853437e-11 0.0000000000000000e+00  -8.3455757375114578e-10 1.4177322197476942e-10 0.0000000000000000e+00  -7.8815233015582754e-10 2.1256315273313958e-10 0.0000000000000000e+00  -7.2236248798671539e-10 2.8190136522275272e-10 0.0000000000000000e+00  -6.3688468228976812e-10 3.4806394584802503e-10 0.0000000000000000e+00  -5.3203110352056435e-10 4.0850715249346202e-10 0.0000000000000000e+00  -4.0914903573873140e-10 4.6016717611863714e-10 0.0000000000000000e+00  -2.7116202557451855e-10 5.0047485394290541e-10 0.0000000000000000e+00  -1.2570725815063425e-10 5.0914575586752692e-10 0.0000000000000000e+00  -4.6862113952425296e-13 4.3612377503273555e-12 0.0000000000000000e+00  -3.5468069034361082e-13 -2.3849143513532892e-12 0.0000000000000000e+00  -1.1014542704852168e-10 -3.5873120024827778e-10 0.0000000000000000e+00  -2.4420345877057883e-10 -3.6322019590791329e-10 0.0000000000000000e+00  -3.6972881303433423e-10 -3.3554662831224407e-10 0.0000000000000000e+00  -4.8340391509399974e-10 -2.9940970071427512e-10 0.0000000000000000e+00  -5.8190542456359429e-10 -2.5670109379673311e-10 0.0000000000000000e+00  -6.6344880809184125e-10 -2.0927388196656745e-10 0.0000000000000000e+00  -7.2711976202081168e-10 -1.5887974821008861e-10 0.0000000000000000e+00  -7.7258356411503389e-10 -1.0683420393396230e-10 0.0000000000000000e+00  -7.9982109876112878e-10 -5.3989141551834651e-11 0.0000000000000000e+00  -8.0891412633024376e-10 -8.3630239583575343e-13 0.0000000000000000e+00  -7.9990885587437525e-10 5.2327298647680396e-11 0.0000000000000000e+00  -7.7276910370247028e-10 1.0520730138262148e-10 0.0000000000000000e+00  -7.2742144054608909e-10 1.5731986668928675e-10 0.0000000000000000e+00  -6.6388958996758983e-10 2.0782578999106855e-10 0.0000000000000000e+00  -5.8250697865339833e-10 2.5542238984269334e-10 0.0000000000000000e+00  -4.8417745167213536e-10 2.9833654589349914e-10 0.0000000000000000e+00  -3.7061729485525668e-10 3.3454575908405007e-10 0.0000000000000000e+00  -2.4473196075846060e-10 3.6255608902378987e-10 0.0000000000000000e+00  -1.1286313419428313e-10 3.6910831981870072e-10 0.0000000000000000e+00  -4.1013899765504887e-13 3.2287330969922803e-12 0.0000000000000000e+00  -3.3489870130360370e-13 -1.4304126592738911e-12 0.0000000000000000e+00  -1.0249745954193453e-10 -2.3162003934202822e-10 0.0000000000000000e+00  -2.2678065394742809e-10 -2.3635957127564402e-10 0.0000000000000000e+00  -3.4414693515502341e-10 -2.1889333940799795e-10 0.0000000000000000e+00  -4.5120041180563485e-10 -1.9591025958342946e-10 0.0000000000000000e+00  -5.4481628916432073e-10 