<?xml version="1.0"?>
<VTKFile type="UnstructuredGrid"  version="0.1"  >
<UnstructuredGrid>
<Piece  NumberOfPoints="651" NumberOfCells="1200">
<Points>
<DataArray  type="Float64"  NumberOfComponents="3"  format="ascii">0 0 0  50000 0 0  100000 0 0  150000 0 0  200000 0 0  250000 0 0  300000 0 0  350000 0 0  400000 0 0  450000 0 0  500000 0 0  550000 0 0  600000 0 0  650000 0 0  700000 0 0  750000 0 0  800000 0 0  850000 0 0  900000 0 0  950000 0 0  1000000 0 0  0 50000 0  50000 50000 0  100000 50000 0  150000 50000 0  200000 50000 0  250000 50000 0  300000 50000 0  350000 50000 0  400000 50000 0  450000 50000 0  500000 50000 0  550000 50000 0  600000 50000 0  650000 50000 0  700000 50000 0  750000 50000 0  800000 50000 0  850000 50000 0  900000 50000 0  950000 50000 0  1000000 50000 0  0 100000 0  50000 100000 0  100000 100000 0  150000 100000 0  200000 100000 0  250000 100000 0  300000 100000 0  350000 100000 0  400000 100000 0  450000 100000 0  500000 100000 0  550000 100000 0  600000 100000 0  650000 100000 0  700000 100000 0  750000 100000 0  800000 100000 0  850000 100000 0  900000 100000 0  950000 100000 0  1000000 100000 0  0 150000 0  50000 150000 0  100000 150000 0  150000 150000 0  200000 150000 0  250000 150000 0  300000 150000 0  350000 150000 0  400000 150000 0  450000 150000 0  500000 150000 0  550000 150000 0  600000 150000 0  650000 150000 0  700000 150000 0  750000 150000 0  800000 150000 0  850000 150000 0  900000 150000 0  950000 150000 0  1000000 150000 0  0 200000 0  50000 200000 0  100000 200000 0  150000 200000 0  200000 200000 0  250000 200000 0  300000 200000 0  350000 200000 0  400000 200000 0  450000 200000 0  500000 200000 0  550000 200000 0  600000 200000 0  650000 200000 0  700000 200000 0  750000 200000 0  800000 200000 0  850000 200000 0  900000 200000 0  950000 200000 0  1000000 200000 0  0 250000 0  50000 250000 0  100000 250000 0  150000 250000 0  200000 250000 0  250000 250000 0  300000 250000 0  350000 250000 0  400000 250000 0  450000 250000 0  500000 250000 0  550000 250000 0  600000 250000 0  650000 250000 0  700000 250000 0  750000 250000 0  800000 250000 0  850000 250000 0  900000 250000 0  950000 250000 0  1000000 250000 0  0 300000 0  50000 300000 0  100000 300000 0  150000 300000 0  200000 300000 0  250000 300000 0  300000 300000 0  350000 300000 0  400000 300000 0  450000 300000 0  500000 300000 0  550000 300000 0  600000 300000 0  650000 300000 0  700000 300000 0  750000 300000 0  800000 300000 0  850000 300000 0  900000 300000 0  950000 300000 0  1000000 300000 0  0 350000 0  50000 350000 0  100000 350000 0  150000 350000 0  200000 350000 0  250000 350000 0  300000 350000 0  350000 350000 0  400000 350000 0  450000 350000 0  500000 350000 0  550000 350000 0  600000 350000 0  650000 350000 0  700000 350000 0  750000 350000 0  800000 350000 0  850000 350000 0  900000 350000 0  950000 350000 0  1000000 350000 0  0 400000 0  50000 400000 0  100000 400000 0  150000 400000 0  200000 400000 0  250000 400000 0  300000 400000 0  350000 400000 0  400000 400000 0  450000 400000 0  500000 400000 0  550000 400000 0  600000 400000 0  650000 400000 0  700000 400000 0  750000 400000 0  800000 400000 0  850000 400000 0  900000 400000 0  950000 400000 0  1000000 400000 0  0 450000 0  50000 450000 0  100000 450000 0  150000 450000 0  200000 450000 0  250000 450000 0  300000 450000 0  350000 450000 0  400000 450000 0  450000 450000 0  500000 450000 0  550000 450000 0  600000 450000 0  650000 450000 0  700000 450000 0  750000 450000 0  800000 450000 0  850000 450000 0  900000 450000 0  950000 450000 0  1000000 450000 0  0 500000 0  50000 500000 0  100000 500000 0  150000 500000 0  200000 500000 0  250000 500000 0  300000 500000 0  350000 500000 0  400000 500000 0  450000 500000 0  500000 500000 0  550000 500000 0  600000 500000 0  650000 500000 0  700000 500000 0  750000 500000 0  800000 500000 0  850000 500000 0  900000 500000 0  950000 500000 0  1000000 500000 0  0 550000 0  50000 550000 0  100000 550000 0  150000 550000 0  200000 550000 0  250000 550000 0  300000 550000 0  350000 550000 0  400000 550000 0  450000 550000 0  500000 550000 0  550000 550000 0  600000 550000 0  650000 550000 0  700000 550000 0  750000 550000 0  800000 550000 0  850000 550000 0  900000 550000 0  950000 550000 0  1000000 550000 0  0 600000 0  50000 600000 0  100000 600000 0  150000 600000 0  200000 600000 0  250000 600000 0  300000 600000 0  350000 600000 0  400000 600000 0  450000 600000 0  500000 600000 0  550000 600000 0  600000 600000 0  650000 600000 0  700000 600000 0  750000 600000 0  800000 600000 0  850000 600000 0  900000 600000 0  950000 600000 0  1000000 600000 0  0 650000 0  50000 650000 0  100000 650000 0  150000 650000 0  200000 650000 0  250000 650000 0  300000 650000 0  350000 650000 0  400000 650000 0  450000 650000 0  500000 650000 0  550000 650000 0  600000 650000 0  650000 650000 0  700000 650000 0  750000 650000 0  800000 650000 0  850000 650000 0  900000 650000 0  950000 650000 0  1000000 650000 0  0 700000 0  50000 700000 0  100000 700000 0  150000 700000 0  200000 700000 0  250000 700000 0  300000 700000 0  350000 700000 0  400000 700000 0  450000 700000 0  500000 700000 0  550000 700000 0  600000 700000 0  650000 700000 0  700000 700000 0  750000 700000 0  800000 700000 0  850000 700000 0  900000 700000 0  950000 700000 0  1000000 700000 0  0 750000 0  50000 750000 0  100000 750000 0  150000 750000 0  200000 750000 0  250000 750000 0  300000 750000 0  350000 750000 0  400000 750000 0  450000 750000 0  500000 750000 0  550000 750000 0  600000 750000 0  650000 750000 0  700000 750000 0  750000 750000 0  800000 750000 0  850000 750000 0  900000 750000 0  950000 750000 0  1000000 750000 0  0 800000 0  50000 800000 0  100000 800000 0  150000 800000 0  200000 800000 0  250000 800000 0  300000 800000 0  350000 800000 0  400000 800000 0  450000 800000 0  500000 800000 0  550000 800000 0  600000 800000 0  650000 800000 0  700000 800000 0  750000 800000 0  800000 800000 0  850000 800000 0  900000 800000 0  950000 800000 0  1000000 800000 0  0 850000 0  50000 850000 0  100000 850000 0  150000 850000 0  200000 850000 0  250000 850000 0  300000 850000 0  350000 850000 0  400000 850000 0  450000 850000 0  500000 850000 0  550000 850000 0  600000 850000 0  650000 850000 0  700000 850000 0  750000 850000 0  800000 850000 0  850000 850000 0  900000 850000 0  950000 850000 0  1000000 850000 0  0 900000 0  50000 900000 0  100000 900000 0  150000 900000 0  200000 900000 0  250000 900000 0  300000 900000 0  350000 900000 0  400000 900000 0  450000 900000 0  500000 900000 0  550000 900000 0  600000 900000 0  650000 900000 0  700000 900000 0  750000 900000 0  800000 900000 0  850000 900000 0  900000 900000 0  950000 900000 0  1000000 900000 0  0 950000 0  50000 950000 0  100000 950000 0  150000 950000 0  200000 950000 0  250000 950000 0  300000 950000 0  350000 950000 0  400000 950000 0  450000 950000 0  500000 950000 0  550000 950000 0  600000 950000 0  650000 950000 0  700000 950000 0  750000 950000 0  800000 950000 0  850000 950000 0  900000 950000 0  950000 950000 0  1000000 950000 0  0 1000000 0  50000 1000000 0  100000 1000000 0  150000 1000000 0  200000 1000000 0  250000 1000000 0  300000 1000000 0  350000 1000000 0  400000 1000000 0  450000 1000000 0  500000 1000000 0  550000 1000000 0  600000 1000000 0  650000 1000000 0  700000 1000000 0  750000 1000000 0  800000 1000000 0  850000 1000000 0  900000 1000000 0  950000 1000000 0  1000000 1000000 0  0 1050000 0  50000 1050000 0  100000 1050000 0  150000 1050000 0  200000 1050000 0  250000 1050000 0  300000 1050000 0  350000 1050000 0  400000 1050000 0  450000 1050000 0  500000 1050000 0  550000 1050000 0  600000 1050000 0  650000 1050000 0  700000 1050000 0  750000 1050000 0  800000 1050000 0  850000 1050000 0  900000 1050000 0  950000 1050000 0  1000000 1050000 0  0 1100000 0  50000 1100000 0  100000 1100000 0  150000 1100000 0  200000 1100000 0  250000 1100000 0  300000 1100000 0  350000 1100000 0  400000 1100000 0  450000 1100000 0  500000 1100000 0  550000 1100000 0  600000 1100000 0  650000 1100000 0  700000 1100000 0  750000 1100000 0  800000 1100000 0  850000 1100000 0  900000 1100000 0  950000 1100000 0  1000000 1100000 0  0 1150000 0  50000 1150000 0  100000 1150000 0  150000 1150000 0  200000 1150000 0  250000 1150000 0  300000 1150000 0  350000 1150000 0  400000 1150000 0  450000 1150000 0  500000 1150000 0  550000 1150000 0  600000 1150000 0  650000 1150000 0  700000 1150000 0  750000 1150000 0  800000 1150000 0  850000 1150000 0  900000 1150000 0  950000 1150000 0  1000000 1150000 0  0 1200000 0  50000 1200000 0  100000 1200000 0  150000 1200000 0  200000 1200000 0  250000 1200000 0  300000 1200000 0  350000 1200000 0  400000 1200000 0  450000 1200000 0  500000 1200000 0  550000 1200000 0  600000 1200000 0  650000 1200000 0  700000 1200000 0  750000 1200000 0  800000 1200000 0  850000 1200000 0  900000 1200000 0  950000 1200000 0  1000000 1200000 0  0 1250000 0  50000 1250000 0  100000 1250000 0  150000 1250000 0  200000 1250000 0  250000 1250000 0  300000 1250000 0  350000 1250000 0  400000 1250000 0  450000 1250000 0  500000 1250000 0  550000 1250000 0  600000 1250000 0  650000 1250000 0  700000 1250000 0  750000 1250000 0  800000 1250000 0  850000 1250000 0  900000 1250000 0  950000 1250000 0  1000000 1250000 0  0 1300000 0  50000 1300000 0  100000 1300000 0  150000 1300000 0  200000 1300000 0  250000 1300000 0  300000 1300000 0  350000 1300000 0  400000 1300000 0  450000 1300000 0  500000 1300000 0  550000 1300000 0  600000 1300000 0  650000 1300000 0  700000 1300000 0  750000 1300000 0  800000 1300000 0  850000 1300000 0  900000 1300000 0  950000 1300000 0  1000000 1300000 0  0 1350000 0  50000 1350000 0  100000 1350000 0  150000 1350000 0  200000 1350000 0  250000 1350000 0  300000 1350000 0  350000 1350000 0  400000 1350000 0  450000 1350000 0  500000 1350000 0  550000 1350000 0  600000 1350000 0  650000 1350000 0  700000 135
[...]
<PointData  Vectors="f_25021"> 
<DataArray  type="Float64"  Name="f_25021"  NumberOfComponents="3" format="ascii">-1.1273466873314066e-10 -7.7102800950531994e-11 0.0000000000000000e+00  7.9920381462013230e-08 -6.7760762884376114e-11 0.0000000000000000e+00  7.9989811050041972e-08 -1.0775209472557732e-12 0.0000000000000000e+00  7.9980200183352858e-08 1.0960894032334358e-13 0.0000000000000000e+00  7.9988300861599311e-08 -3.9511578345942403e-13 0.0000000000000000e+00  7.9990200911402503e-08 9.4254070642417690e-14 0.0000000000000000e+00  7.9991484857765067e-08 2.4831470845032633e-14 0.0000000000000000e+00  7.9992308317880849e-08 2.8962196417525535e-14 0.0000000000000000e+00  7.9992765720472264e-08 2.8279065672848984e-14 0.0000000000000000e+00  7.9992986669452393e-08 2.7012310291758209e-14 0.0000000000000000e+00  7.9993002142986892e-08 3.0017203721282025e-14 0.0000000000000000e+00  7.9992814013170046e-08 3.9153786218295567e-14 0.0000000000000000e+00  7.9992391422753477e-08 5.4807146919949555e-14 0.0000000000000000e+00  7.9991668890879825e-08 8.7249899892523495e-14 0.0000000000000000e+00  7.9990384715161042e-08 2.4338200077245640e-13 0.0000000000000000e+00  7.9988566710328900e-08 2.2129396871345496e-14 0.0000000000000000e+00  7.9985123700339673e-08 1.8392287129927021e-12 0.0000000000000000e+00  7.9968661016736531e-08 7.2318542001458065e-12 0.0000000000000000e+00  7.9990780594400686e-08 -2.9255568436781108e-11 0.0000000000000000e+00  7.9535066621801478e-08 4.2558066219644058e-10 0.0000000000000000e+00  -6.0633291137950002e-10 5.4451669622608563e-10 0.0000000000000000e+00  -8.8973661551137961e-11 -7.1510287120970574e-11 0.0000000000000000e+00  -1.4232641557143158e-08 -1.3732854248032288e-08 0.0000000000000000e+00  -4.1106519698251456e-09 -4.2969487231228238e-09 0.0000000000000000e+00  -3.2228040105127973e-09 -1.9923047672053887e-09 0.0000000000000000e+00  -7.0500169838559415e-10 -1.0616945711296799e-09 0.0000000000000000e+00  2.5867627721277952e-10 -6.1295625748725630e-10 0.0000000000000000e+00  9.1988456473169497e-10 -3.9227480869060789e-10 0.0000000000000000e+00  1.3392783832587380e-09 -2.5357369720054285e-10 0.0000000000000000e+00  1.5959653472603799e-09 -1.5859299878655979e-10 0.0000000000000000e+00  1.7366154784385153e-09 -8.5577173965499344e-11 0.0000000000000000e+00  1.7809982268060262e-09 -2.1706228618959195e-11 0.0000000000000000e+00  1.7352651580312341e-09 4.2256423974831707e-11 0.0000000000000000e+00  1.5931501552972407e-09 1.1559693785474960e-10 0.0000000000000000e+00  1.3337388354587003e-09 2.1092811836014332e-10 0.0000000000000000e+00  9.1752537725406191e-10 3.5031946029120072e-10 0.0000000000000000e+00  2.5455840457922204e-10 5.7712421262202792e-10 0.0000000000000000e+00  -8.3601422205370869e-10 9.9075644190999753e-10 0.0000000000000000e+00  -2.3376101039265773e-09 1.9732790882498462e-09 0.0000000000000000e+00  -7.2519410937570318e-09 4.3108668880411375e-09 0.0000000000000000e+00  -1.0307804547496862e-08 1.3009528052362815e-08 0.0000000000000000e+00  -4.4810426506625500e-10 4.3617823275738746e-10 0.0000000000000000e+00  -1.0147181812289410e-11 -1.5238077872006592e-11 0.0000000000000000e+00  -5.0875565959779252e-09 -9.7512357538371376e-09 0.0000000000000000e+00  -6.6257751528252936e-09 -6.7257741105613222e-09 0.0000000000000000e+00  -6.3699232124384766e-09 -3.7815024732964821e-09 0.0000000000000000e+00  -5.1585845249108551e-09 -2.1221419296012721e-09 0.0000000000000000e+00  -4.5924699155019776e-09 -1.3149107476104311e-09 0.0000000000000000e+00  -4.0553137231907121e-09 -8.3630735555230290e-10 0.0000000000000000e+00  -3.7155088417937150e-09 -5.2658397471627186e-10 0.0000000000000000e+00  -3.4945470103818342e-09 -3.0835831962866453e-10 0.0000000000000000e+00  -3.3705013483477323e-09 -1.3679576493627030e-10 0.0000000000000000e+00  -3.3305451670279103e-09 1.4491483344028480e-11 0.0000000000000000e+00  -3.3701919091171075e-09 1.6576935863409103e-10 0.0000000000000000e+00  -3.4935521199758849e-09 3.3726965794032953e-10 0.0000000000000000e+00  -3.7136015884528533e-09 5.5542011549058213e-10 0.0000000000000000e+00  -4.0551929298484700e-09 8.6266077149740403e-10 0.0000000000000000e+00  -4.5569143887982348e-09 1.3377831499993344e-09 0.0000000000000000e+00  -5.2388933273566642e-09 2.1440406062479563e-09 0.0000000000000000e+00  -6.2501102448745839e-09 3.6465461561121823e-09 0.0000000000000000e+00  -6.7429723208578007e-09 6.6001743700047375e-09 0.0000000000000000e+00  -4.2551221417836108e-09 1.2552965453549015e-08 0.0000000000000000e+00  1.2024457203327653e-11 4.9160497555855622e-12 0.0000000000000000e+00  -1.4019339081468328e-13 -1.6581688011061451e-11 0.0000000000000000e+00  -2.1933128806406495e-09 -7.8272182349636883e-09 0.0000000000000000e+00  -4.2559680653735958e-09 -5.9968865904590905e-09 0.0000000000000000e+00  -4.6157349350137898e-09 -3.9310160847858903e-09 0.0000000000000000e+00  -4.5648036497295435e-09 -2.6348219545001822e-09 0.0000000000000000e+00  -4.3249674031125369e-09 -1.7705229978108218e-09 0.0000000000000000e+00  -4.0388272431735027e-09 -1.1783573018194200e-09 0.0000000000000000e+00  -3.8327157005737058e-09 -7.7117415474849174e-10 0.0000000000000000e+00  -3.6824424524643422e-09 -4.6750186017376128e-10 0.0000000000000000e+00  -3.5946755749665303e-09 -2.2116434299452739e-10 0.0000000000000000e+00  -3.5656418771677127e-09 -5.9721380506856466e-13 0.0000000000000000e+00  -3.5939541595068071e-09 2.1992987671425677e-10 0.0000000000000000e+00  -3.6807819995945400e-09 4.6602659534937299e-10 0.0000000000000000e+00  -3.8290681851209937e-09 7.6936587249634745e-10 0.0000000000000000e+00  -4.0405309975825785e-09 1.1759788746650268e-09 0.0000000000000000e+00  -4.3046389566156816e-09 1.7594806950969329e-09 0.0000000000000000e+00  -4.5824803178944463e-09 2.6411241149917380e-09 0.0000000000000000e+00  -4.6731541607631726e-09 3.9952825381103154e-09 0.0000000000000000e+00  -4.0913700615941470e-09 6.0129921712081522e-09 0.0000000000000000e+00  -2.2070717816108296e-09 7.2907767445845831e-09 0.0000000000000000e+00  -3.3909736064546649e-12 2.7277493988609257e-11 0.0000000000000000e+00  -2.8105563444498200e-13 -1.0583432239982104e-11 0.0000000000000000e+00  -1.2128237677901074e-09 -5.4128874460964436e-09 0.0000000000000000e+00  -2.5729828781836776e-09 -4.7185526607202496e-09 0.0000000000000000e+00  -3.2921354806597190e-09 -3.6770131327262111e-09 0.0000000000000000e+00  -3.5934011974768543e-09 -2.6979797466217044e-09 0.0000000000000000e+00  -3.6068563766528845e-09 -1.9153187713806361e-09 0.0000000000000000e+00  -3.5432883158080224e-09 -1.3381629393460605e-09 0.0000000000000000e+00  -3.4596828184625797e-09 -9.0210719441707550e-10 0.0000000000000000e+00  -3.3854138089861731e-09 -5.5651456488022129e-10 0.0000000000000000e+00  -3.3381277477319734e-09 -2.6568590571565050e-10 0.0000000000000000e+00  -3.3217038698831259e-09 -2.7027343646906728e-13 0.0000000000000000e+00  -3.3375325028947005e-09 2.6507153343590916e-10 0.0000000000000000e+00  -3.3843833071692981e-09 5.5559951211816234e-10 0.0000000000000000e+00  -3.4572528977751215e-09 9.0045682905014432e-10 0.0000000000000000e+00  -3.5427385875117934e-09 1.3367390558791148e-09 0.0000000000000000e+00  -3.6090096568861107e-09 1.9126474371777609e-09 0.0000000000000000e+00  -3.5806233247421436e-09 2.6833311382826148e-09 0.0000000000000000e+00  -3.3077616573075851e-09 3.6848311161760623e-09 0.0000000000000000e+00  -2.5590448960466571e-09 4.7658803713988971e-09 0.0000000000000000e+00  -1.1945506084328943e-09 5.4650086837144225e-09 0.0000000000000000e+00  -2.4190253794955047e-12 1.4318001108983818e-11 0.0000000000000000e+00  4.6159298138233437e-14 -7.7251477078716276e-12 0.0000000000000000e+00  -7.6367563324228451e-10 -4.1243058695504437e-09 0.0000000000000000e+00  -1.7471401815054255e-09 -3.8530082245173653e-09 0.0000000000000000e+00  -2.4268766030691783e-09 -3.1846573588960880e-09 0.0000000000000000e+00  -2.8099876081623687e-09 -2.4794106889375996e-09 0.0000000000000000e+00  -2.9904536521177541e-09 -1.8676376888911630e-09 0.0000000000000000e+00  -3.0605407764274797e-09 -1.3610034364220544e-09 0.0000000000000000e+00  -3.0715218939819260e-09 -9.4266058311686704e-10 0.0000000000000000e+00  -3.0621592947685503e-09 -5.9225932556324886e-10 0.0000000000000000e+00  -3.0507984249254691e-09 -2.8558394799845730e-10 0.0000000000000000e+00  -3.0459690295097358e-09 -1.5516679625503631e-14 0.0000000000000000e+00  -3.0504227768189854e-09 2.8548922827296796e-10 0.0000000000000000e+00  -3.0615984942670207e-09 5.9201421243865495e-10 0.0000000000000000e+00  -3.0707135652887234e-09 9.4201547697321394e-10 0.0000000000000000e+00  -3.0592231263031741e-09 1.3597453935027066e-09 0.0000000000000000e+00  -2.9920428695395587e-09 1.8686761730480455e-09 0.0000000000000000e+00  -2.8090419375930649e-09 2.4815696949800903e-09 0.0000000000000000e+00  -2.4220917014864328e-09 3.1714631659522099e-09 0.0000000000000000e+00  -1.7426270217701679e-09 3.8346153846260690e-09 0.0000000000000000e+00  -7.6903650996024955e-10 4.1418953278575849e-09 0.0000000000000000e+00  -1.6573995439762050e-14 9.6391683910017062e-12 0.0000000000000000e+00  3.8907210690691462e-14 -5.9581394090932578e-12 0.0000000000000000e+00  -5.3913298737609041e-10 -3.2237723806720191e-09 0.0000000000000000e+00  -1.2720412195038998e-09 -3.0853753474789600e-09 0.0000000000000000e+00  -1.8454230850784906e-09 -2.6669898699868025e-09 0.0000000000000000e+00  -2.2412067133377217e-09 -2.1860078174476414e-09 0.0000000000000000e+00  -2.4880602112604501e-09 -1.7167781790233992e-09 0.0000000000000000e+00  -2.6294046764616628e-09 -1.2906653710929803e-09 0.0000000000000000e+00  -2.7044564717310803e-09 -9.1611747399609066e-10 0.0000000000000000e+00  -2.7417578816932854e-09 -5.8542180695700056e-10 0.0000000000000000e+00  -2.7579295998303226e-09 -2.8510602756990043e-10 0.0000000000000000e+00  -2.7622957204535946e-09 -2.1643517450341183e-13 0.0000000000000000e+00  -2.7577361723281173e-09 2.8462415348215051e-10 0.0000000000000000e+00  -2.7414212008682586e-09 5.8483561693471106e-10 0.0000000000000000e+00  -2.7042241087466017e-09 9.1543714371078855e-10 0.0000000000000000e+00  -2.6288773181285760e-09 1.2896247831915657e-09 0.0000000000000000e+00  -2.4875706873333623e-09 1.7149015035162751e-09 0.0000000000000000e+00  -2.2411671783624573e-09 2.1848189756453361e-09 0.0000000000000000e+00  -1.8452489407995024e-09 2.6669952765982252e-09 0.0000000000000000e+00  -1.2704534996519561e-09 3.0846331306918481e-09 0.0000000000000000e+00  -5.4280140417759716e-10 3.2309647247601677e-09 0.0000000000000000e+00  -2.0594085325167891e-13 7.4262411327345858e-12 0.0000000000000000e+00  3.7036789791993014e-14 -4.6432537981422854e-12 0.0000000000000000e+00  -4.0566543081522001e-10 -2.5540515383413719e-09 0.0000000000000000e+00  -9.7469931992307843e-10 -2.4893162980724147e-09 0.0000000000000000e+00  -1.4557872027250615e-09 -2.2150553954651012e-09 0.0000000000000000e+00  -1.8251968217173146e-09 -1.8719878449670084e-09 0.0000000000000000e+00  -2.0869459996556779e-09 -1.5130759935865214e-09 0.0000000000000000e+00  -2.2623114299047689e-09 -1.1671214232183762e-09 0.0000000000000000e+00  -2.3740432077074824e-09 -8.4528178975909658e-10 0.0000000000000000e+00  -2.4407687960943196e-09 -5.4779541613938562e-10 0.0000000000000000e+00  -2.4756921681559172e-09 -2.6903673415198645e-10 0.0000000000000000e+00  -2.4864854291978419e-09 -2.9004104137678716e-13 0.0000000000000000e+00  -2.4756035910820752e-09 2.6843107172193142e-10 0.0000000000000000e+00  -2.4405965403684845e-09 5.4710634876081278e-10 0.0000000000000000e+00  -2.3738644111147081e-09 8.4450204268897291e-10 0.0000000000000000e+00  -2.2621798883055733e-09 1.1662831976161147e-09 0.0000000000000000e+00  -2.0866718656550722e-09 1.5118109960471504e-09 0.0000000000000000e+00  -1.8247960457415410e-09 1.8695358623579113e-09 0.0000000000000000e+00  -1.4563403121444749e-09 2.2120153518942284e-09 0.0000000000000000e+00  -9.7526621278955842e-10 2.4889779074592959e-09 0.0000000000000000e+00  -4.0841111662070763e-10 2.5634167469841454e-09 0.0000000000000000e+00  -7.7330764073263290e-14 5.6739687076816531e-12 0.0000000000000000e+00  3.4651706933730999e-14 -3.6551726928763202e-12 0.0000000000000000e+00  -3.2027060347464129e-10 -2.0356266183813024e-09 0.0000000000000000e+00  -7.7893913040607553e-10 -2.0054539119178863e-09 0.0000000000000000e+00  -1.1847639099096169e-09 -1.8162118337480806e-09 0.0000000000000000e+00  -1.5171905885078710e-09 -1.5678043281976036e-09 0.0000000000000000e+00  -1.7723440463423096e-09 -1.2949747301979136e-09 0.0000000000000000e+00  -1.9585729037453678e-09 -1.0183179387266404e-09 0.0000000000000000e+00  -2.0874763192654236e-09 -7.4899619560776217e-10 0.0000000000000000e+00  -2.1705413660863028e-09 -4.9090334898366879e-10 0.0000000000000000e+00  -2.2167123298389526e-09 -2.4278291435460083e-10 0.0000000000000000e+00  -2.2314757508537353e-09 -3.2687259512880197e-13 0.0000000000000000e+00  -2.2166699479007512e-09 2.4211362452861978e-10 0.0000000000000000e+00  -2.1704650249600459e-09 4.9018260645433249e-10 0.0000000000000000e+00  -2.0873744497353913e-09 7.4816765987490013e-10 0.0000000000000000e+00  -1.9584846258303928e-09 1.0173298237210400e-09 0.0000000000000000e+00  -1.7723410923584714e-09 1.2937784116500839e-09 0.0000000000000000e+00  -1.5172459546603369e-09 1.5661971286043663e-09 0.0000000000000000e+00  -1.1854536613981652e-09 1.8143261903237044e-09 0.0000000000000000e+00  -7.7965271238444279e-10 2.0056883339962730e-09 0.0000000000000000e+00  -3.2250665819070145e-10 2.0429218945031148e-09 0.0000000000000000e+00  -3.8831381638848504e-14 4.4526232767934014e-12 0.0000000000000000e+00  3.0209816233752322e-14 -2.8634715740119067e-12 0.0000000000000000e+00  -2.6274443408262420e-10 -1.6160015279001536e-09 0.0000000000000000e+00  -6.4385395088735327e-10 -1.6031140311629059e-09 0.0000000000000000e+00  -9.9109828520834563e-10 -1.4692038989446458e-09 0.0000000000000000e+00  -1.2878398471368948e-09 -1.2870310133725649e-09 0.0000000000000000e+00  -1.5275196625475271e-09 -1.0793635101820579e-09 0.0000000000000000e+00  -1.7119483038223834e-09 -8.6075701758773919e-10 0.0000000000000000e+00  -1.8462429930963770e-09 -6.4061005103960487e-10 0.0000000000000000e+00  -1.9366504190155551e-09 -4.2359261708949948e-10 0.0000000000000000e+00  -1.9885352077628079e-09 -2.1065639076758568e-10 0.0000000000000000e+00  -2.0054167897686908e-09 -3.4809431378532502e-13 0.0000000000000000e+00  -1.9885156392102482e-09 2.0994709790337838e-10 0.0000000000000000e+00  -1.9366200657352702e-09 4.2284333005509732e-10 0.0000000000000000e+00  -1.8462134409689889e-09 6.3978479142891064e-10 0.0000000000000000e+00  -1.7119392864506525e-09 8.5979656496778015e-10 0.0000000000000000e+00  -1.5276169689901668e-09 1.0782074096906543e-09 0.0000000000000000e+00  -1.2880928141128499e-09 1.2856653865061844e-09 0.0000000000000000e+00  -9.9183921132656005e-10 1.4679512517701141e-09 0.0000000000000000e+00  -6.4451866640928189e-10 1.6037778668538157e-09 0.0000000000000000e+00  -2.6444807012938587e-10 1.6221138665139478e-09 0.0000000000000000e+00  -2.0455907803572893e-14 3.5047409031849713e-12 0.0000000000000000e+00  2.6701101217704604e-14 -2.2058591266222102e-12 0.0000000000000000e+00  -2.2260327596075844e-10 -1.2650586212555051e-09 0.0000000000000000e+00  -5.4819350185524392e-10 -1.2609036910516528e-09 0.0000000000000000e+00  -8.5068894370511021e-10 -1.1648890601885743e-09 0.0000000000000000e+00  -1.1165103694461595e-09 -1.0307515226172955e-09 0.0000000000000000e+00  -1.3385704471253786e-09 -8.7375343404645473e-10 0.0000000000000000e+00  -1.5155380410487412e-09 -7.0394195345954534e-10 0.0000000000000000e+00  -1.6487508226348944e-09 -5.2851367140869487e-10 0.0000000000000000e+00  -1.7409680853585448e-09 -3.5181063667544310e-10 0.0000000000000000e+00  -1.7949690398423610e-09 -1.7571063757847269e-10 0.0000000000000000e+00  -1.8127314150503836e-09 -3.5784398772925489e-13 0.0000000000000000e+00  -1.7949637254101702e-09 1.7498451919211092e-10 0.0000000000000000e+00  -1.7409638685363385e-09 3.5105234945775779e-10 0.0000000000000000e+00  -1.6487636594954124e-09 5.2769939164963019e-10 0.0000000000000000e+00  -1.5155931350673881e-09 7.0304477939526240e-10 0.0000000000000000e+00  -1.3387309982144298e-09 8.7274939769527900e-10 0.0000000000000000e+00  -1.1168120486678091e-09 1.0296527567743430e-09 0.0000000000000000e+00  -8.5133949124403764e-10 1.1639927266202264e-09 0.0000000000000000e+00  -5.4874629450186132e-10 1.2617006891314093e-09 0.0000000000000000e+00  -2.2389812140603480e-10 1.2703243534496144e-09 0.0000000000000000e+00  -8.0287879367715698e-15 2.7404273488680853e-12 0.0000000000000000e+00  2.3680978783139544e-14 -1.6413602800303445e-12 0.0000000000000000e+00  -1.9425510873266192e-10 -9.6274223038883934e-10 0.0000000000000000e+00  -4.7992191867683073e-10 -9.6275054012946756e-10 0.0000000000000000e+00  -7.4881271477430410e-10 -8.9431076809777576e-10 0.0000000000000000e+00  -9.8954249330896420e-10 -7.9680576132501605e-10 0.0000000000000000e+00  -1.1952405846120491e-09 -6.8052733633285343e-10 0.0000000000000000e+00  -1.3630758214083089e-09 -5.5227023463621973e-10 0.0000000000000000e+00  -1.4922504603969967e-09 -4.1727842718724627e-10 0.0000000000000000e+00  -1.5833529311146227e-09 -2.7913726409278997e-10 0.0000000000000000e+00  -1.6374222044880562e-09 -1.3987545248726216e-10 0.0000000000000000e+00  -1.6553347329904299e-09 -3.6159347738674253e-13 0.0000000000000000e+00  -1.6374250982520229e-09 1.3914505488464057e-10 0.0000000000000000e+00  -1.5833646427578394e-09 2.7838502087937488e-10 0.0000000000000000e+00  -1.4922854193692195e-09 4.1649040064071135e-10 0.0000000000000000e+00  -1.3631577903306791e-09 5.5143738567371611e-10 0.0000000000000000e+00  -1.1954163187071903e-09 6.7965241871437496e-10 0.0000000000000000e+00  -9.8982890173411192e-10 7.9591666259651786e-10 0.0000000000000000e+00  -7.4933533021061507e-10 8.9365503841017564e-10 0.0000000000000000e+00  -4.8034825787826788e-10 9.6358601432442703e-10 0.0000000000000000e+00  -1.9522052507540556e-10 9.6736304374377515e-10 0.0000000000000000e+00  -5.4767987881475136e-16 2.1020462476290517e-12 0.0000000000000000e+00  2.1014651367834473e-14 -1.1409257590306684e-12 0.0000000000000000e+00  -1.7449923311685486e-10 -6.9479130834839616e-10 0.0000000000000000e+00  -4.3196589332147556e-10 -6.9651777367604636e-10 0.0000000000000000e+00  -6.7643617392859815e-10 -6.4943914047640969e-10 0.0000000000000000e+00  -8.9800374330440934e-10 -5.8133972817391899e-10 0.0000000000000000e+00  -1.0901899275106730e-09 -4.9905536158098052e-10 0.0000000000000000e+00  -1.2494730496803509e-09 -4.0704479989395969e-10 0.0000000000000000e+00  -1.3738906083485694e-09 -3.0892742827691114e-10 0.0000000000000000e+00  -1.4627335849607047e-09 -2.0739191268182847e-10 0.0000000000000000e+00  -1.5159348565406447e-09 -1.0419352162907289e-10 0.0000000000000000e+00  -1.5336432092583289e-09 -3.6156745540445939e-13 0.0000000000000000e+00  -1.5159412844339889e-09 1.0346607088880831e-10 0.0000000000000000e+00  -1.4627516146467165e-09 2.0665222172486544e-10 0.0000000000000000e+00  -1.3739318175010661e-09 3.0817038780300221e-10 0.0000000000000000e+00  -1.2495553182381611e-09 4.0627223616189936e-10 0.0000000000000000e+00  -1.0903446808448121e-09 4.9828090456877943e-10 0.0000000000000000e+00  -8.9823755364376579e-10 5.8059448348327964e-10 0.0000000000000000e+00  -6.7682444666590277e-10 6.4893489071019175e-10 0.0000000000000000e+00  -4.3227375154198709e-10 6.9735491381952957e-10 0.0000000000000000e+00  -1.7518563783139817e-10 6.9895303579778171e-10 0.0000000000000000e+00  4.5670495266991646e-15 1.5506643283761914e-12 0.0000000000000000e+00  1.8588015804601492e-14 -6.8279770550431320e-13 0.0000000000000000e+00  -1.6145890258708400e-10 -4.5039018849463479e-10 0.0000000000000000e+00  -4.0010641215063367e-10 -4.5253105505033909e-10 0.0000000000000000e+00  -6.2798784011490378e-10 -4.2307408374962496e-10 0.0000000000000000e+00  -8.3611432746428535e-10 -3.7987091112024034e-10 0.0000000000000000e+00  -1.0183662959626348e-09 -3.2719640067834725e-10 