<?xml version="1.0"?>
<VTKFile type="UnstructuredGrid"  version="0.1"  >
<UnstructuredGrid>
<Piece  NumberOfPoints="651" NumberOfCells="1200">
<Points>
<DataArray  type="Float64"  NumberOfComponents="3"  format="ascii">0 0 0  50000 0 0  100000 0 0  150000 0 0  200000 0 0  250000 0 0  300000 0 0  350000 0 0  400000 0 0  450000 0 0  500000 0 0  550000 0 0  600000 0 0  650000 0 0  700000 0 0  750000 0 0  800000 0 0  850000 0 0  900000 0 0  950000 0 0  1000000 0 0  0 50000 0  50000 50000 0  100000 50000 0  150000 50000 0  200000 50000 0  250000 50000 0  300000 50000 0  350000 50000 0  400000 50000 0  450000 50000 0  500000 50000 0  550000 50000 0  600000 50000 0  650000 50000 0  700000 50000 0  750000 50000 0  800000 50000 0  850000 50000 0  900000 50000 0  950000 50000 0  1000000 50000 0  0 100000 0  50000 100000 0  100000 100000 0  150000 100000 0  200000 100000 0  250000 100000 0  300000 100000 0  350000 100000 0  400000 100000 0  450000 100000 0  500000 100000 0  550000 100000 0  600000 100000 0  650000 100000 0  700000 100000 0  750000 100000 0  800000 100000 0  850000 100000 0  900000 100000 0  950000 100000 0  1000000 100000 0  0 150000 0  50000 150000 0  100000 150000 0  150000 150000 0  200000 150000 0  250000 150000 0  300000 150000 0  350000 150000 0  400000 150000 0  450000 150000 0  500000 150000 0  550000 150000 0  600000 150000 0  650000 150000 0  700000 150000 0  750000 150000 0  800000 150000 0  850000 150000 0  900000 150000 0  950000 150000 0  1000000 150000 0  0 200000 0  50000 200000 0  100000 200000 0  150000 200000 0  200000 200000 0  250000 200000 0  300000 200000 0  350000 200000 0  400000 200000 0  450000 200000 0  500000 200000 0  550000 200000 0  600000 200000 0  650000 200000 0  700000 200000 0  750000 200000 0  800000 200000 0  850000 200000 0  900000 200000 0  950000 200000 0  1000000 200000 0  0 250000 0  50000 250000 0  100000 250000 0  150000 250000 0  200000 250000 0  250000 250000 0  300000 250000 0  350000 250000 0  400000 250000 0  450000 250000 0  500000 250000 0  550000 250000 0  600000 250000 0  650000 250000 0  700000 250000 0  750000 250000 0  800000 250000 0  850000 250000 0  900000 250000 0  950000 250000 0  1000000 250000 0  0 300000 0  50000 300000 0  100000 300000 0  150000 300000 0  200000 300000 0  250000 300000 0  300000 300000 0  350000 300000 0  400000 300000 0  450000 300000 0  500000 300000 0  550000 300000 0  600000 300000 0  650000 300000 0  700000 300000 0  750000 300000 0  800000 300000 0  850000 300000 0  900000 300000 0  950000 300000 0  1000000 300000 0  0 350000 0  50000 350000 0  100000 350000 0  150000 350000 0  200000 350000 0  250000 350000 0  300000 350000 0  350000 350000 0  400000 350000 0  450000 350000 0  500000 350000 0  550000 350000 0  600000 350000 0  650000 350000 0  700000 350000 0  750000 350000 0  800000 350000 0  850000 350000 0  900000 350000 0  950000 350000 0  1000000 350000 0  0 400000 0  50000 400000 0  100000 400000 0  150000 400000 0  200000 400000 0  250000 400000 0  300000 400000 0  350000 400000 0  400000 400000 0  450000 400000 0  500000 400000 0  550000 400000 0  600000 400000 0  650000 400000 0  700000 400000 0  750000 400000 0  800000 400000 0  850000 400000 0  900000 400000 0  950000 400000 0  1000000 400000 0  0 450000 0  50000 450000 0  100000 450000 0  150000 450000 0  200000 450000 0  250000 450000 0  300000 450000 0  350000 450000 0  400000 450000 0  450000 450000 0  500000 450000 0  550000 450000 0  600000 450000 0  650000 450000 0  700000 450000 0  750000 450000 0  800000 450000 0  850000 450000 0  900000 450000 0  950000 450000 0  1000000 450000 0  0 500000 0  50000 500000 0  100000 500000 0  150000 500000 0  200000 500000 0  250000 500000 0  300000 500000 0  350000 500000 0  400000 500000 0  450000 500000 0  500000 500000 0  550000 500000 0  600000 500000 0  650000 500000 0  700000 500000 0  750000 500000 0  800000 500000 0  850000 500000 0  900000 500000 0  950000 500000 0  1000000 500000 0  0 550000 0  50000 550000 0  100000 550000 0  150000 550000 0  200000 550000 0  250000 550000 0  300000 550000 0  350000 550000 0  400000 550000 0  450000 550000 0  500000 550000 0  550000 550000 0  600000 550000 0  650000 550000 0  700000 550000 0  750000 550000 0  800000 550000 0  850000 550000 0  900000 550000 0  950000 550000 0  1000000 550000 0  0 600000 0  50000 600000 0  100000 600000 0  150000 600000 0  200000 600000 0  250000 600000 0  300000 600000 0  350000 600000 0  400000 600000 0  450000 600000 0  500000 600000 0  550000 600000 0  600000 600000 0  650000 600000 0  700000 600000 0  750000 600000 0  800000 600000 0  850000 600000 0  900000 600000 0  950000 600000 0  1000000 600000 0  0 650000 0  50000 650000 0  100000 650000 0  150000 650000 0  200000 650000 0  250000 650000 0  300000 650000 0  350000 650000 0  400000 650000 0  450000 650000 0  500000 650000 0  550000 650000 0  600000 650000 0  650000 650000 0  700000 650000 0  750000 650000 0  800000 650000 0  850000 650000 0  900000 650000 0  950000 650000 0  1000000 650000 0  0 700000 0  50000 700000 0  100000 700000 0  150000 700000 0  200000 700000 0  250000 700000 0  300000 700000 0  350000 700000 0  400000 700000 0  450000 700000 0  500000 700000 0  550000 700000 0  600000 700000 0  650000 700000 0  700000 700000 0  750000 700000 0  800000 700000 0  850000 700000 0  900000 700000 0  950000 700000 0  1000000 700000 0  0 750000 0  50000 750000 0  100000 750000 0  150000 750000 0  200000 750000 0  250000 750000 0  300000 750000 0  350000 750000 0  400000 750000 0  450000 750000 0  500000 750000 0  550000 750000 0  600000 750000 0  650000 750000 0  700000 750000 0  750000 750000 0  800000 750000 0  850000 750000 0  900000 750000 0  950000 750000 0  1000000 750000 0  0 800000 0  50000 800000 0  100000 800000 0  150000 800000 0  200000 800000 0  250000 800000 0  300000 800000 0  350000 800000 0  400000 800000 0  450000 800000 0  500000 800000 0  550000 800000 0  600000 800000 0  650000 800000 0  700000 800000 0  750000 800000 0  800000 800000 0  850000 800000 0  900000 800000 0  950000 800000 0  1000000 800000 0  0 850000 0  50000 850000 0  100000 850000 0  150000 850000 0  200000 850000 0  250000 850000 0  300000 850000 0  350000 850000 0  400000 850000 0  450000 850000 0  500000 850000 0  550000 850000 0  600000 850000 0  650000 850000 0  700000 850000 0  750000 850000 0  800000 850000 0  850000 850000 0  900000 850000 0  950000 850000 0  1000000 850000 0  0 900000 0  50000 900000 0  100000 900000 0  150000 900000 0  200000 900000 0  250000 900000 0  300000 900000 0  350000 900000 0  400000 900000 0  450000 900000 0  500000 900000 0  550000 900000 0  600000 900000 0  650000 900000 0  700000 900000 0  750000 900000 0  800000 900000 0  850000 900000 0  900000 900000 0  950000 900000 0  1000000 900000 0  0 950000 0  50000 950000 0  100000 950000 0  150000 950000 0  200000 950000 0  250000 950000 0  300000 950000 0  350000 950000 0  400000 950000 0  450000 950000 0  500000 950000 0  550000 950000 0  600000 950000 0  650000 950000 0  700000 950000 0  750000 950000 0  800000 950000 0  850000 950000 0  900000 950000 0  950000 950000 0  1000000 950000 0  0 1000000 0  50000 1000000 0  100000 1000000 0  150000 1000000 0  200000 1000000 0  250000 1000000 0  300000 1000000 0  350000 1000000 0  400000 1000000 0  450000 1000000 0  500000 1000000 0  550000 1000000 0  600000 1000000 0  650000 1000000 0  700000 1000000 0  750000 1000000 0  800000 1000000 0  850000 1000000 0  900000 1000000 0  950000 1000000 0  1000000 1000000 0  0 1050000 0  50000 1050000 0  100000 1050000 0  150000 1050000 0  200000 1050000 0  250000 1050000 0  300000 1050000 0  350000 1050000 0  400000 1050000 0  450000 1050000 0  500000 1050000 0  550000 1050000 0  600000 1050000 0  650000 1050000 0  700000 1050000 0  750000 1050000 0  800000 1050000 0  850000 1050000 0  900000 1050000 0  950000 1050000 0  1000000 1050000 0  0 1100000 0  50000 1100000 0  100000 1100000 0  150000 1100000 0  200000 1100000 0  250000 1100000 0  300000 1100000 0  350000 1100000 0  400000 1100000 0  450000 1100000 0  500000 1100000 0  550000 1100000 0  600000 1100000 0  650000 1100000 0  700000 1100000 0  750000 1100000 0  800000 1100000 0  850000 1100000 0  900000 1100000 0  950000 1100000 0  1000000 1100000 0  0 1150000 0  50000 1150000 0  100000 1150000 0  150000 1150000 0  200000 1150000 0  250000 1150000 0  300000 1150000 0  350000 1150000 0  400000 1150000 0  450000 1150000 0  500000 1150000 0  550000 1150000 0  600000 1150000 0  650000 1150000 0  700000 1150000 0  750000 1150000 0  800000 1150000 0  850000 1150000 0  900000 1150000 0  950000 1150000 0  1000000 1150000 0  0 1200000 0  50000 1200000 0  100000 1200000 0  150000 1200000 0  200000 1200000 0  250000 1200000 0  300000 1200000 0  350000 1200000 0  400000 1200000 0  450000 1200000 0  500000 1200000 0  550000 1200000 0  600000 1200000 0  650000 1200000 0  700000 1200000 0  750000 1200000 0  800000 1200000 0  850000 1200000 0  900000 1200000 0  950000 1200000 0  1000000 1200000 0  0 1250000 0  50000 1250000 0  100000 1250000 0  150000 1250000 0  200000 1250000 0  250000 1250000 0  300000 1250000 0  350000 1250000 0  400000 1250000 0  450000 1250000 0  500000 1250000 0  550000 1250000 0  600000 1250000 0  650000 1250000 0  700000 1250000 0  750000 1250000 0  800000 1250000 0  850000 1250000 0  900000 1250000 0  950000 1250000 0  1000000 1250000 0  0 1300000 0  50000 1300000 0  100000 1300000 0  150000 1300000 0  200000 1300000 0  250000 1300000 0  300000 1300000 0  350000 1300000 0  400000 1300000 0  450000 1300000 0  500000 1300000 0  550000 1300000 0  600000 1300000 0  650000 1300000 0  700000 1300000 0  750000 1300000 0  800000 1300000 0  850000 1300000 0  900000 1300000 0  950000 1300000 0  1000000 1300000 0  0 1350000 0  50000 1350000 0  100000 1350000 0  150000 1350000 0  200000 1350000 0  250000 1350000 0  300000 1350000 0  350000 1350000 0  400000 1350000 0  450000 1350000 0  500000 1350000 0  550000 1350000 0  600000 1350000 0  650000 1350000 0  700000 135
[...]
<PointData  Vectors="f_25021"> 
<DataArray  type="Float64"  Name="f_25021"  NumberOfComponents="3" format="ascii">-9.2082018412123206e-11 -5.6580864673821076e-11 0.0000000000000000e+00  7.9937543675243675e-08 -5.0364878060813879e-11 0.0000000000000000e+00  7.9996853058654631e-08 2.8693830237093682e-12 0.0000000000000000e+00  7.9988345344451198e-08 1.9369155820264648e-12 0.0000000000000000e+00  7.9994474846986328e-08 6.2500039240160714e-13 0.0000000000000000e+00  7.9995480610470889e-08 6.0923314091253474e-13 0.0000000000000000e+00  7.9996197438970150e-08 3.3103919782597287e-13 0.0000000000000000e+00  7.9996639571149352e-08 2.1209313690433770e-13 0.0000000000000000e+00  7.9996874353657383e-08 1.2466271961361286e-13 0.0000000000000000e+00  7.9996987698211274e-08 5.6222811759761207e-14 0.0000000000000000e+00  7.9996995105956959e-08 -3.2528606489871563e-15 0.0000000000000000e+00  7.9996898212747226e-08 -6.1947727843647752e-14 0.0000000000000000e+00  7.9996677259344023e-08 -1.2983888366466763e-13 0.0000000000000000e+00  7.9996297500148195e-08 -2.2081549143889325e-13 0.0000000000000000e+00  7.9995557188994244e-08 -2.6240601689486907e-13 0.0000000000000000e+00  7.9994542409092762e-08 -7.8709116189550353e-13 0.0000000000000000e+00  7.9992272632781614e-08 1.4888636682903364e-13 0.0000000000000000e+00  7.9978858620355236e-08 3.0607453094091043e-12 0.0000000000000000e+00  7.9996319483929910e-08 -3.0922872792443439e-11 0.0000000000000000e+00  7.9611030631301332e-08 3.4842616662006759e-10 0.0000000000000000e+00  -5.1060310730350016e-10 4.4348459903806807e-10 0.0000000000000000e+00  -7.1632003675277774e-11 -5.4199290226961365e-11 0.0000000000000000e+00  -1.0983041385724351e-08 -1.9645330740674168e-08 0.0000000000000000e+00  3.6897110188861534e-09 -6.5935635257105974e-09 0.0000000000000000e+00  6.5683678284984362e-09 -2.9830451680711159e-09 0.0000000000000000e+00  1.0213577821359048e-08 -1.4459174068103202e-09 0.0000000000000000e+00  1.1687534261635784e-08 -8.1089458561123388e-10 0.0000000000000000e+00  1.2667547396286400e-08 -5.0499706150477755e-10 0.0000000000000000e+00  1.3275400860075483e-08 -3.1740412732920265e-10 0.0000000000000000e+00  1.3645729637033913e-08 -1.9253347083110877e-10 0.0000000000000000e+00  1.3848006166062151e-08 -9.7517074750189866e-11 0.0000000000000000e+00  1.3911968068337136e-08 -1.5074804805470960e-11 0.0000000000000000e+00  1.3847169567930535e-08 6.7340330142256926e-11 0.0000000000000000e+00  1.3644315601423607e-08 1.6234204421300839e-10 0.0000000000000000e+00  1.3271507187581223e-08 2.8708128517973295e-10 0.0000000000000000e+00  1.2667211330774751e-08 4.7277310580828345e-10 0.0000000000000000e+00  1.1696146939921611e-08 7.8469505549891728e-10 0.0000000000000000e+00  1.0064115548254941e-08 1.3735986789303829e-09 0.0000000000000000e+00  7.5736680885619258e-09 2.8931266448885504e-09 0.0000000000000000e+00  2.9911731442874739e-10 6.8660842294665810e-09 0.0000000000000000e+00  -7.2118491401589630e-09 1.8682027220967457e-08 0.0000000000000000e+00  -3.7406163747401169e-10 3.5690989801396859e-10 0.0000000000000000e+00  -6.1723941902588389e-12 -8.7424096260867355e-12 0.0000000000000000e+00  -7.4470546526724349e-09 -1.5629653413462812e-08 0.0000000000000000e+00  -1.0116812230808741e-08 -1.0661900211452055e-08 0.0000000000000000e+00  -9.2695180703228837e-09 -5.9348154692203197e-09 0.0000000000000000e+00  -7.3467802384388264e-09 -3.2378222781038507e-09 0.0000000000000000e+00  -6.2986755984877888e-09 -1.9722774516605218e-09 0.0000000000000000e+00  -5.4050687656722931e-09 -1.2397036057531872e-09 0.0000000000000000e+00  -4.8480070197908789e-09 -7.7814504818945603e-10 0.0000000000000000e+00  -4.4863402374144037e-09 -4.5839627736173325e-10 0.0000000000000000e+00  -4.2856680158472233e-09 -2.0977887382842380e-10 0.0000000000000000e+00  -4.2214849710436916e-09 8.0284612251592725e-12 0.0000000000000000e+00  -4.2860722899235490e-09 2.2583364307048915e-10 0.0000000000000000e+00  -4.4869145934246635e-09 4.7428314327299090e-10 0.0000000000000000e+00  -4.8474053264368327e-09 7.9415489836358157e-10 0.0000000000000000e+00  -5.4124636064724398e-09 1.2528782122698605e-09 0.0000000000000000e+00  -6.2570241095993843e-09 1.9793568582937466e-09 0.0000000000000000e+00  -7.4510140040850244e-09 3.2603623697401182e-09 0.0000000000000000e+00  -9.1834417338556492e-09 5.7581982575948246e-09 0.0000000000000000e+00  -1.0281805454846255e-08 1.0852924039770260e-08 0.0000000000000000e+00  -6.3955465822575078e-09 1.8310703782473772e-08 0.0000000000000000e+00  1.1343909173284294e-11 -1.0653992112024091e-12 0.0000000000000000e+00  1.7088766952151653e-12 -9.6859451322646398e-12 0.0000000000000000e+00  -3.2837249249060702e-09 -1.1349746856028377e-08 0.0000000000000000e+00  -6.5416944557416585e-09 -9.6174809218206793e-09 0.0000000000000000e+00  -7.2475869959025530e-09 -6.3233049223898529e-09 0.0000000000000000e+00  -7.0984391982946492e-09 -4.1468748766967535e-09 0.0000000000000000e+00  -6.6511894210966297e-09 -2.7361184029089045e-09 0.0000000000000000e+00  -6.1624345233267244e-09 -1.7996669132631671e-09 0.0000000000000000e+00  -5.8133796630644624e-09 -1.1679767999458434e-09 0.0000000000000000e+00  -5.5598046177286457e-09 -7.0339407657898165e-10 0.0000000000000000e+00  -5.4145593331687292e-09 -3.3082710080985567e-10 0.0000000000000000e+00  -5.3665969511140054e-09 8.4493891263713054e-13 0.0000000000000000e+00  -5.4139753076788815e-09 3.3252463706168546e-10 0.0000000000000000e+00  -5.5591180505585032e-09 7.0487860745440498e-10 0.0000000000000000e+00  -5.8086206563432328e-09 1.1690746549079751e-09 0.0000000000000000e+00  -6.1689688946929743e-09 1.8013691730708739e-09 0.0000000000000000e+00  -6.6288947640092654e-09 2.7279728447995768e-09 0.0000000000000000e+00  -7.1225970324750083e-09 4.1637441624610404e-09 0.0000000000000000e+00  -7.3208927655890727e-09 6.4244483868436071e-09 0.0000000000000000e+00  -6.3289197711322859e-09 9.7177211131213660e-09 0.0000000000000000e+00  -3.1591899114125064e-09 1.0726324318784686e-08 0.0000000000000000e+00  4.6814899819506529e-14 1.7932682713913508e-11 0.0000000000000000e+00  8.4753206118453423e-13 -5.5347945454962498e-12 0.0000000000000000e+00  -1.6878442790855407e-09 -7.7653331083201638e-09 0.0000000000000000e+00  -3.8922689406399401e-09 -7.5739834734137238e-09 0.0000000000000000e+00  -5.1188301465266924e-09 -5.8785991319000289e-09 0.0000000000000000e+00  -5.5906540920950865e-09 -4.2669875696590834e-09 0.0000000000000000e+00  -5.6007968655504990e-09 -2.9998821105555542e-09 0.0000000000000000e+00  -5.4798836902987441e-09 -2.0792782682951802e-09 0.0000000000000000e+00  -5.3306674269419522e-09 -1.3925590915601949e-09 0.0000000000000000e+00  -5.2013038239118168e-09 -8.5492473911969816e-10 0.0000000000000000e+00  -5.1209039907305181e-09 -4.0688675215783745e-10 0.0000000000000000e+00  -5.0929045772347759e-09 1.5757304590543688e-13 0.0000000000000000e+00  -5.1202724802785978e-09 4.0716593349215504e-10 0.0000000000000000e+00  -5.2010338132204883e-09 8.5514616050996827e-10 0.0000000000000000e+00  -5.3280045189648903e-09 1.3920363332857809e-09 0.0000000000000000e+00  -5.4804967459339693e-09 2.0801535993762260e-09 0.0000000000000000e+00  -5.6063601152575314e-09 3.0025219451607700e-09 0.0000000000000000e+00  -5.5781960758165526e-09 4.2559384310537784e-09 0.0000000000000000e+00  -5.1327025269707142e-09 5.8968673618097971e-09 0.0000000000000000e+00  -3.8639328096682400e-09 7.6321772487141771e-09 0.0000000000000000e+00  -1.6272782618138186e-09 7.7837276330973141e-09 0.0000000000000000e+00  -7.0934048728998747e-13 8.2512742746567559e-12 0.0000000000000000e+00  7.0569130498812804e-13 -3.7873878883889579e-12 0.0000000000000000e+00  -1.0208131281646397e-09 -5.8231434521241424e-09 0.0000000000000000e+00  -2.5755394098977874e-09 -6.0759489374231493e-09 0.0000000000000000e+00  -3.7031358162674175e-09 -5.0533542492485902e-09 0.0000000000000000e+00  -4.3298937338439216e-09 -3.9222708299809725e-09 0.0000000000000000e+00  -4.6172595330979647e-09 -2.9391560854282792e-09 0.0000000000000000e+00  -4.7204739817448741e-09 -2.1296595780358109e-09 0.0000000000000000e+00  -4.7281855324897633e-09 -1.4680854938538130e-09 0.0000000000000000e+00  -4.7064044641625017e-09 -9.1934665635621940e-10 0.0000000000000000e+00  -4.6841110166495573e-09 -4.4238103599094168e-10 0.0000000000000000e+00  -4.6749838544109972e-09 1.5486409263853497e-13 0.0000000000000000e+00  -4.6837681818050959e-09 4.4263796780032734e-10 0.0000000000000000e+00  -4.7061506978165320e-09 9.1967393204871754e-10 0.0000000000000000e+00  -4.7280618488013773e-09 1.4684056041674173e-09 0.0000000000000000e+00  -4.7190365362278812e-09 2.1295553809138157e-09 0.0000000000000000e+00  -4.6202847524499931e-09 2.9430910026013427e-09 0.0000000000000000e+00  -4.3289996582294447e-09 3.9304170137346641e-09 0.0000000000000000e+00  -3.6931823675482262e-09 5.0421003398086339e-09 0.0000000000000000e+00  -2.5629987488091961e-09 6.0561911056492460e-09 0.0000000000000000e+00  -1.0158385857012536e-09 5.8262564136569266e-09 0.0000000000000000e+00  9.0609574007551742e-13 4.8909618904046369e-12 0.0000000000000000e+00  4.9400314761514612e-13 -2.8370201313553135e-12 0.0000000000000000e+00  -7.0502849550635035e-10 -4.5095871826695449e-09 0.0000000000000000e+00  -1.8408660345317350e-09 -4.8270602167213545e-09 0.0000000000000000e+00  -2.7755544304745486e-09 -4.2090025970414742e-09 0.0000000000000000e+00  -3.4179541116266040e-09 -3.4485328997511555e-09 0.0000000000000000e+00  -3.8141559301775393e-09 -2.7006938235981755e-09 0.0000000000000000e+00  -4.0358200141758303e-09 -2.0235351744555389e-09 0.0000000000000000e+00  -4.1505639541587732e-09 -1.4320601759651586e-09 0.0000000000000000e+00  -4.2056591562682972e-09 -9.1300886971107363e-10 0.0000000000000000e+00  -4.2283588191302036e-09 -4.4378213120206550e-10 0.0000000000000000e+00  -4.2343709341394603e-09 9.8482868694224647e-14 0.0000000000000000e+00  -4.2282702146325463e-09 4.4396794092637926e-10 0.0000000000000000e+00  -4.2053809267281173e-09 9.1319400835299541e-10 0.0000000000000000e+00  -4.1507027306220474e-09 1.4325842870225788e-09 0.0000000000000000e+00  -4.0354965946579887e-09 2.0240791665707054e-09 0.0000000000000000e+00  -3.8130404675140544e-09 2.7000615929087746e-09 0.0000000000000000e+00  -3.4170190749583436e-09 3.4487706706143977e-09 0.0000000000000000e+00  -2.7726908769595728e-09 4.2112262706150951e-09 0.0000000000000000e+00  -1.8357255311220411e-09 4.8292014023647707e-09 0.0000000000000000e+00  -7.0222400534967554e-10 4.5061353887573186e-09 0.0000000000000000e+00  4.1891073508457026e-13 3.6860493973422878e-12 0.0000000000000000e+00  3.7580761172099996e-13 -2.1574935223930332e-12 0.0000000000000000e+00  -5.2231731544041478e-10 -3.5516421478818550e-09 0.0000000000000000e+00  -1.3927452947563585e-09 -3.8710900707150561e-09 0.0000000000000000e+00  -2.1657866500621051e-09 -3.4770611167220077e-09 0.0000000000000000e+00  -2.7590583923302197e-09 -2.9419813492318646e-09 0.0000000000000000e+00  -3.1776168993008962e-09 -2.3758601778786317e-09 0.0000000000000000e+00  -3.4554967445641786e-09 -1.8299113245981841e-09 0.0000000000000000e+00  -3.6307070194129955e-09 -1.3231222253349289e-09 0.0000000000000000e+00  -3.7340506015849766e-09 -8.5607393645368791e-10 0.0000000000000000e+00  -3.7876377391032016e-09 -4.1980684637783984e-10 0.0000000000000000e+00  -3.8041752521985122e-09 4.4051965162724289e-14 0.0000000000000000e+00  -3.7876043297821153e-09 4.1991946604538448e-10 0.0000000000000000e+00  -3.7339083670390697e-09 8.5618881658007794e-10 0.0000000000000000e+00  -3.6304773337174936e-09 1.3232477991588275e-09 0.0000000000000000e+00  -3.4552818976382309e-09 1.8303224389417341e-09 0.0000000000000000e+00  -3.1767958935028929e-09 2.3759552442353807e-09 0.0000000000000000e+00  -2.7573863769327569e-09 2.9399254497420280e-09 0.0000000000000000e+00  -2.1643201875719685e-09 3.4735127806102015e-09 0.0000000000000000e+00  -1.3916484085066218e-09 3.8720840424252931e-09 0.0000000000000000e+00  -5.2113407311518222e-10 3.5543425271291297e-09 0.0000000000000000e+00  3.7279980293227552e-13 2.6992477683683098e-12 0.0000000000000000e+00  3.0074780581491749e-13 -1.6715908817435415e-12 0.0000000000000000e+00  -4.0824340704515128e-10 -2.8185885048944871e-09 0.0000000000000000e+00  -1.1027303275484991e-09 -3.1039782574504341e-09 0.0000000000000000e+00  -1.7474778381269082e-09 -2.8380468267545894e-09 0.0000000000000000e+00  -2.2766301567604866e-09 -2.4554141806220993e-09 0.0000000000000000e+00  -2.6825694597938970e-09 -2.0292098659379711e-09 0.0000000000000000e+00  -2.9775126090456973e-09 -1.5950866370852286e-09 0.0000000000000000e+00  -3.1805256566186028e-09 -1.1722238204104683e-09 0.0000000000000000e+00  -3.3106404906334582e-09 -7.6757097601173305e-10 0.0000000000000000e+00  -3.3826890087087441e-09 -3.7918271402031776e-10 0.0000000000000000e+00  -3.4056724094346722e-09 4.6278133298063861e-16 0.0000000000000000e+00  -3.3826305767586957e-09 3.7918908954663413e-10 0.0000000000000000e+00  -3.3105330258514123e-09 7.6759443179793798e-10 0.0000000000000000e+00  -3.1802738809687192e-09 1.1721727071818068e-09 0.0000000000000000e+00  -2.9770729055976106e-09 1.5948000746380592e-09 0.0000000000000000e+00  -2.6819813948283588e-09 2.0286691024579295e-09 0.0000000000000000e+00  -2.2758372813915380e-09 2.4543669439545417e-09 0.0000000000000000e+00  -1.7468582022277078e-09 2.8365184111762328e-09 0.0000000000000000e+00  -1.1024162310249214e-09 3.1056839724970764e-09 0.0000000000000000e+00  -4.0775444117030557e-10 2.8203955088848960e-09 0.0000000000000000e+00  3.0270159738920940e-13 2.0742978861428799e-12 0.0000000000000000e+00  2.4878674113981414e-13 -1.2933041049294521e-12 0.0000000000000000e+00  -3.3227927823476546e-10 -2.2303331744817940e-09 0.0000000000000000e+00  -9.0491238321673602e-10 -2.4726414246087162e-09 0.0000000000000000e+00  -1.4518797596415819e-09 -2.2881355130377604e-09 0.0000000000000000e+00  -1.9207378695918905e-09 -2.0100195831985671e-09 0.0000000000000000e+00  -2.2998408450149506e-09 -1.6876431067197640e-09 0.0000000000000000e+00  -2.5909754905914135e-09 -1.3462348522048513e-09 0.0000000000000000e+00  -2.8024551705431918e-09 -1.0017676737276341e-09 0.0000000000000000e+00  -2.9444552646475593e-09 -6.6211945063624449e-10 0.0000000000000000e+00  -3.0257635437590894e-09 -3.2896688509911452e-10 0.0000000000000000e+00  -3.0521755916561439e-09 -3.9335552199870613e-14 0.0000000000000000e+00  -3.0257012312850903e-09 3.2887611711599043e-10 0.0000000000000000e+00  -2.9443244012767034e-09 6.6199843091682065e-10 0.0000000000000000e+00  -2.8022382443055239e-09 1.0015856436290106e-09 0.0000000000000000e+00  -2.5906246741129532e-09 1.3458535745556108e-09 0.0000000000000000e+00  -2.2993940291966114e-09 1.6868431989872761e-09 0.0000000000000000e+00  -1.9203263866516796e-09 2.0087629522284727e-09 0.0000000000000000e+00  -1.4517586865663660e-09 2.2870553582349274e-09 0.0000000000000000e+00  -9.0498400832669229e-10 2.4746472901532104e-09 0.0000000000000000e+00  -3.3198951561176057e-10 2.2321288219609846e-09 0.0000000000000000e+00  2.5080430752389547e-13 1.6058808337899735e-12 0.0000000000000000e+00  2.1273425161914917e-13 -9.8677839794788975e-13 0.0000000000000000e+00  -2.7971294190645731e-10 -1.7418276618773895e-09 0.0000000000000000e+00  -7.6602846895672683e-10 -1.9396735576030629e-09 0.0000000000000000e+00  -1.2392834604154384e-09 -1.8092748737108537e-09 0.0000000000000000e+00  -1.6566386831356176e-09 -1.6057614088104526e-09 0.0000000000000000e+00  -2.0059939468168060e-09 -1.3633509807757102e-09 0.0000000000000000e+00  -2.2843242782510146e-09 -1.0992904606554943e-09 0.0000000000000000e+00  -2.4936696008307317e-09 -8.2557938959135006e-10 0.0000000000000000e+00  -2.6384136699985874e-09 -5.4948025603487641e-10 0.0000000000000000e+00  -2.7230788907397748e-09 -2.7420510959515326e-10 0.0000000000000000e+00  -2.7508989656596380e-09 -8.1611419076221327e-14 0.0000000000000000e+00  -2.7230234362280543e-09 2.7402952798583533e-10 0.0000000000000000e+00  -2.6382928154359029e-09 5.4925615228764443e-10 0.0000000000000000e+00  -2.4934818257132900e-09 8.2525756447588773e-10 0.0000000000000000e+00  -2.2840793854196609e-09 1.0988154103534098e-09 0.0000000000000000e+00  -2.0057397757008049e-09 1.3626475066075639e-09 0.0000000000000000e+00  -1.6564575354089498e-09 1.6048138287985424e-09 0.0000000000000000e+00  -1.2393282223348662e-09 1.8085835698281408e-09 0.0000000000000000e+00  -7.6620828053856424e-10 1.9416417656867496e-09 0.0000000000000000e+00  -2.7954641748087077e-10 1.7434689197462213e-09 0.0000000000000000e+00  2.1561898627961387e-13 1.2398762597085032e-12 0.0000000000000000e+00  1.8721941909631600e-13 -7.2881443543850066e-13 0.0000000000000000e+00  -2.4279355447453006e-10 -1.3233239951958373e-09 0.0000000000000000e+00  -6.6748338810177452e-10 -1.4779865180535665e-09 0.0000000000000000e+00  -1.0858857026774829e-09 -1.3860850376254090e-09 0.0000000000000000e+00  -1.4619032247017868e-09 -1.2388606870856570e-09 0.0000000000000000e+00  -1.7840280408868826e-09 -1.0600313420397991e-09 0.0000000000000000e+00  -2.0470229882070435e-09 -8.6119706424054039e-10 0.0000000000000000e+00  -2.2494678294784925e-09 -6.5104776276836009e-10 0.0000000000000000e+00  -2.3922059439993513e-09 -4.3553850596046695e-10 0.0000000000000000e+00  -2.4768875178743529e-09 -2.1806595306351125e-10 0.0000000000000000e+00  -2.5049201985799684e-09 -1.1759347572649290e-13 0.0000000000000000e+00  -2.4768402493727055e-09 2.1781710248928899e-10 0.0000000000000000e+00  -2.3921112524291039e-09 4.3524514952842746e-10 0.0000000000000000e+00  -2.2493299576801616e-09 6.5066898422384683e-10 0.0000000000000000e+00  -2.0468604338304229e-09 8.6068810378928964e-10 0.0000000000000000e+00  -1.7838917710232323e-09 1.0593682960812253e-09 0.0000000000000000e+00  -1.4618493726336700e-09 1.2380955464171593e-09 0.0000000000000000e+00  -1.0859905772645935e-09 1.3856576460932597e-09 0.0000000000000000e+00  -6.6767091786468360e-10 1.4798901438871394e-09 0.0000000000000000e+00  -2.4269064605745709e-10 1.3248087451261136e-09 0.0000000000000000e+00  1.8966557091313095e-13 9.4209454974635169e-13 0.0000000000000000e+00  1.6946193096346565e-13 -5.0373661056643310e-13 0.0000000000000000e+00  -2.1713501539531942e-10 -9.5405428339110309e-10 0.0000000000000000e+00  -5.9853391484252742e-10 -1.0676244273422147e-09 0.0000000000000000e+00  -9.7733067773736852e-10 -1.0049473074012627e-09 0.0000000000000000e+00  -1.3220111063593313e-09 -9.0245763088017321e-10 0.0000000000000000e+00  -1.6218325652322245e-09 -7.7625002500972350e-10 0.0000000000000000e+00  -1.8706163048368472e-09 -6.3392847754251232e-10 0.0000000000000000e+00  -2.0650912758528132e-09 -4.8145284156012763e-10 0.0000000000000000e+00  -2.2040018966189758e-09 -3.2325120189604010e-10 0.0000000000000000e+00  -2.2871872838787489e-09 -1.6223757806011412e-10 0.0000000000000000e+00  -2.3148624466621653e-09 -1.4463804639073277e-13 0.0000000000000000e+00  -2.2871519114947815e-09 1.6193475719964377e-10 0.0000000000000000e+00  -2.2039340371379121e-09 3.2290807200709049e-10 0.0000000000000000e+00  -2.0649998761388612e-09 4.8104358932040091e-10 0.0000000000000000e+00  -1.8705194099372153e-09 6.3343119507776439e-10 0.0000000000000000e+00  -1.6217668984588241e-09 7.7565966316392161e-10 0.0000000000000000e+00  -1.3220114425542635e-09 9.0183201194147400e-10 0.0000000000000000e+00  -9.7743698491175285e-10 1.0046750224212119e-09 0.0000000000000000e+00  -5.9869129563956561e-10 1.0694456985312343e-09 0.0000000000000000e+00  -2.1707083602377591e-10 9.5542248680345764e-10 0.0000000000000000e+00  1.7136618910059514e-13 6.9003819411539292e-13 0.0000000000000000e+00  1.5779784704388642e-13 -3.0015295839296075e-13 0.0000000000000000e+00  -2.0020213574749100e-10 -6.1842253625112830e-10 0.0000000000000000e+00  -5.5284047546268231e-10 -6.9285115144699852e-10 0.0000000000000000e+00  -9.0484104853705351e-10 -6.5389057920896036e-10 0.0000000000000000e+00  -1.2276502026556463e-09 -5.8900901575201747e-10 0.0000000000000000e+00  -1.5111647661903698e-09 -5.0835684717560485e-10 0.000000000000000