<?xml version="1.0"?>
<VTKFile type="UnstructuredGrid"  version="0.1"  >
<UnstructuredGrid>
<Piece  NumberOfPoints="651" NumberOfCells="1200">
<Points>
<DataArray  type="Float64"  NumberOfComponents="3"  format="ascii">0 0 0  50000 0 0  100000 0 0  150000 0 0  200000 0 0  250000 0 0  300000 0 0  350000 0 0  400000 0 0  450000 0 0  500000 0 0  550000 0 0  600000 0 0  650000 0 0  700000 0 0  750000 0 0  800000 0 0  850000 0 0  900000 0 0  950000 0 0  1000000 0 0  0 50000 0  50000 50000 0  100000 50000 0  150000 50000 0  200000 50000 0  250000 50000 0  300000 50000 0  350000 50000 0  400000 50000 0  450000 50000 0  500000 50000 0  550000 50000 0  600000 50000 0  650000 50000 0  700000 50000 0  750000 50000 0  800000 50000 0  850000 50000 0  900000 50000 0  950000 50000 0  1000000 50000 0  0 100000 0  50000 100000 0  100000 100000 0  150000 100000 0  200000 100000 0  250000 100000 0  300000 100000 0  350000 100000 0  400000 100000 0  450000 100000 0  500000 100000 0  550000 100000 0  600000 100000 0  650000 100000 0  700000 100000 0  750000 100000 0  800000 100000 0  850000 100000 0  900000 100000 0  950000 100000 0  1000000 100000 0  0 150000 0  50000 150000 0  100000 150000 0  150000 150000 0  200000 150000 0  250000 150000 0  300000 150000 0  350000 150000 0  400000 150000 0  450000 150000 0  500000 150000 0  550000 150000 0  600000 150000 0  650000 150000 0  700000 150000 0  750000 150000 0  800000 150000 0  850000 150000 0  900000 150000 0  950000 150000 0  1000000 150000 0  0 200000 0  50000 200000 0  100000 200000 0  150000 200000 0  200000 200000 0  250000 200000 0  300000 200000 0  350000 200000 0  400000 200000 0  450000 200000 0  500000 200000 0  550000 200000 0  600000 200000 0  650000 200000 0  700000 200000 0  750000 200000 0  800000 200000 0  850000 200000 0  900000 200000 0  950000 200000 0  1000000 200000 0  0 250000 0  50000 250000 0  100000 250000 0  150000 250000 0  200000 250000 0  250000 250000 0  300000 250000 0  350000 250000 0  400000 250000 0  450000 250000 0  500000 250000 0  550000 250000 0  600000 250000 0  650000 250000 0  700000 250000 0  750000 250000 0  800000 250000 0  850000 250000 0  900000 250000 0  950000 250000 0  1000000 250000 0  0 300000 0  50000 300000 0  100000 300000 0  150000 300000 0  200000 300000 0  250000 300000 0  300000 300000 0  350000 300000 0  400000 300000 0  450000 300000 0  500000 300000 0  550000 300000 0  600000 300000 0  650000 300000 0  700000 300000 0  750000 300000 0  800000 300000 0  850000 300000 0  900000 300000 0  950000 300000 0  1000000 300000 0  0 350000 0  50000 350000 0  100000 350000 0  150000 350000 0  200000 350000 0  250000 350000 0  300000 350000 0  350000 350000 0  400000 350000 0  450000 350000 0  500000 350000 0  550000 350000 0  600000 350000 0  650000 350000 0  700000 350000 0  750000 350000 0  800000 350000 0  850000 350000 0  900000 350000 0  950000 350000 0  1000000 350000 0  0 400000 0  50000 400000 0  100000 400000 0  150000 400000 0  200000 400000 0  250000 400000 0  300000 400000 0  350000 400000 0  400000 400000 0  450000 400000 0  500000 400000 0  550000 400000 0  600000 400000 0  650000 400000 0  700000 400000 0  750000 400000 0  800000 400000 0  850000 400000 0  900000 400000 0  950000 400000 0  1000000 400000 0  0 450000 0  50000 450000 0  100000 450000 0  150000 450000 0  200000 450000 0  250000 450000 0  300000 450000 0  350000 450000 0  400000 450000 0  450000 450000 0  500000 450000 0  550000 450000 0  600000 450000 0  650000 450000 0  700000 450000 0  750000 450000 0  800000 450000 0  850000 450000 0  900000 450000 0  950000 450000 0  1000000 450000 0  0 500000 0  50000 500000 0  100000 500000 0  150000 500000 0  200000 500000 0  250000 500000 0  300000 500000 0  350000 500000 0  400000 500000 0  450000 500000 0  500000 500000 0  550000 500000 0  600000 500000 0  650000 500000 0  700000 500000 0  750000 500000 0  800000 500000 0  850000 500000 0  900000 500000 0  950000 500000 0  1000000 500000 0  0 550000 0  50000 550000 0  100000 550000 0  150000 550000 0  200000 550000 0  250000 550000 0  300000 550000 0  350000 550000 0  400000 550000 0  450000 550000 0  500000 550000 0  550000 550000 0  600000 550000 0  650000 550000 0  700000 550000 0  750000 550000 0  800000 550000 0  850000 550000 0  900000 550000 0  950000 550000 0  1000000 550000 0  0 600000 0  50000 600000 0  100000 600000 0  150000 600000 0  200000 600000 0  250000 600000 0  300000 600000 0  350000 600000 0  400000 600000 0  450000 600000 0  500000 600000 0  550000 600000 0  600000 600000 0  650000 600000 0  700000 600000 0  750000 600000 0  800000 600000 0  850000 600000 0  900000 600000 0  950000 600000 0  1000000 600000 0  0 650000 0  50000 650000 0  100000 650000 0  150000 650000 0  200000 650000 0  250000 650000 0  300000 650000 0  350000 650000 0  400000 650000 0  450000 650000 0  500000 650000 0  550000 650000 0  600000 650000 0  650000 650000 0  700000 650000 0  750000 650000 0  800000 650000 0  850000 650000 0  900000 650000 0  950000 650000 0  1000000 650000 0  0 700000 0  50000 700000 0  100000 700000 0  150000 700000 0  200000 700000 0  250000 700000 0  300000 700000 0  350000 700000 0  400000 700000 0  450000 700000 0  500000 700000 0  550000 700000 0  600000 700000 0  650000 700000 0  700000 700000 0  750000 700000 0  800000 700000 0  850000 700000 0  900000 700000 0  950000 700000 0  1000000 700000 0  0 750000 0  50000 750000 0  100000 750000 0  150000 750000 0  200000 750000 0  250000 750000 0  300000 750000 0  350000 750000 0  400000 750000 0  450000 750000 0  500000 750000 0  550000 750000 0  600000 750000 0  650000 750000 0  700000 750000 0  750000 750000 0  800000 750000 0  850000 750000 0  900000 750000 0  950000 750000 0  1000000 750000 0  0 800000 0  50000 800000 0  100000 800000 0  150000 800000 0  200000 800000 0  250000 800000 0  300000 800000 0  350000 800000 0  400000 800000 0  450000 800000 0  500000 800000 0  550000 800000 0  600000 800000 0  650000 800000 0  700000 800000 0  750000 800000 0  800000 800000 0  850000 800000 0  900000 800000 0  950000 800000 0  1000000 800000 0  0 850000 0  50000 850000 0  100000 850000 0  150000 850000 0  200000 850000 0  250000 850000 0  300000 850000 0  350000 850000 0  400000 850000 0  450000 850000 0  500000 850000 0  550000 850000 0  600000 850000 0  650000 850000 0  700000 850000 0  750000 850000 0  800000 850000 0  850000 850000 0  900000 850000 0  950000 850000 0  1000000 850000 0  0 900000 0  50000 900000 0  100000 900000 0  150000 900000 0  200000 900000 0  250000 900000 0  300000 900000 0  350000 900000 0  400000 900000 0  450000 900000 0  500000 900000 0  550000 900000 0  600000 900000 0  650000 900000 0  700000 900000 0  750000 900000 0  800000 900000 0  850000 900000 0  900000 900000 0  950000 900000 0  1000000 900000 0  0 950000 0  50000 950000 0  100000 950000 0  150000 950000 0  200000 950000 0  250000 950000 0  300000 950000 0  350000 950000 0  400000 950000 0  450000 950000 0  500000 950000 0  550000 950000 0  600000 950000 0  650000 950000 0  700000 950000 0  750000 950000 0  800000 950000 0  850000 950000 0  900000 950000 0  950000 950000 0  1000000 950000 0  0 1000000 0  50000 1000000 0  100000 1000000 0  150000 1000000 0  200000 1000000 0  250000 1000000 0  300000 1000000 0  350000 1000000 0  400000 1000000 0  450000 1000000 0  500000 1000000 0  550000 1000000 0  600000 1000000 0  650000 1000000 0  700000 1000000 0  750000 1000000 0  800000 1000000 0  850000 1000000 0  900000 1000000 0  950000 1000000 0  1000000 1000000 0  0 1050000 0  50000 1050000 0  100000 1050000 0  150000 1050000 0  200000 1050000 0  250000 1050000 0  300000 1050000 0  350000 1050000 0  400000 1050000 0  450000 1050000 0  500000 1050000 0  550000 1050000 0  600000 1050000 0  650000 1050000 0  700000 1050000 0  750000 1050000 0  800000 1050000 0  850000 1050000 0  900000 1050000 0  950000 1050000 0  1000000 1050000 0  0 1100000 0  50000 1100000 0  100000 1100000 0  150000 1100000 0  200000 1100000 0  250000 1100000 0  300000 1100000 0  350000 1100000 0  400000 1100000 0  450000 1100000 0  500000 1100000 0  550000 1100000 0  600000 1100000 0  650000 1100000 0  700000 1100000 0  750000 1100000 0  800000 1100000 0  850000 1100000 0  900000 1100000 0  950000 1100000 0  1000000 1100000 0  0 1150000 0  50000 1150000 0  100000 1150000 0  150000 1150000 0  200000 1150000 0  250000 1150000 0  300000 1150000 0  350000 1150000 0  400000 1150000 0  450000 1150000 0  500000 1150000 0  550000 1150000 0  600000 1150000 0  650000 1150000 0  700000 1150000 0  750000 1150000 0  800000 1150000 0  850000 1150000 0  900000 1150000 0  950000 1150000 0  1000000 1150000 0  0 1200000 0  50000 1200000 0  100000 1200000 0  150000 1200000 0  200000 1200000 0  250000 1200000 0  300000 1200000 0  350000 1200000 0  400000 1200000 0  450000 1200000 0  500000 1200000 0  550000 1200000 0  600000 1200000 0  650000 1200000 0  700000 1200000 0  750000 1200000 0  800000 1200000 0  850000 1200000 0  900000 1200000 0  950000 1200000 0  1000000 1200000 0  0 1250000 0  50000 1250000 0  100000 1250000 0  150000 1250000 0  200000 1250000 0  250000 1250000 0  300000 1250000 0  350000 1250000 0  400000 1250000 0  450000 1250000 0  500000 1250000 0  550000 1250000 0  600000 1250000 0  650000 1250000 0  700000 1250000 0  750000 1250000 0  800000 1250000 0  850000 1250000 0  900000 1250000 0  950000 1250000 0  1000000 1250000 0  0 1300000 0  50000 1300000 0  100000 1300000 0  150000 1300000 0  200000 1300000 0  250000 1300000 0  300000 1300000 0  350000 1300000 0  400000 1300000 0  450000 1300000 0  500000 1300000 0  550000 1300000 0  600000 1300000 0  650000 1300000 0  700000 1300000 0  750000 1300000 0  800000 1300000 0  850000 1300000 0  900000 1300000 0  950000 1300000 0  1000000 1300000 0  0 1350000 0  50000 1350000 0  100000 1350000 0  150000 1350000 0  200000 1350000 0  250000 1350000 0  300000 1350000 0  350000 1350000 0  400000 1350000 0  450000 1350000 0  500000 1350000 0  550000 1350000 0  600000 1350000 0  650000 1350000 0  700000 135
[...]
<PointData  Vectors="f_25021"> 
<DataArray  type="Float64"  Name="f_25021"  NumberOfComponents="3" format="ascii">-1.2328316969433680e-10 -8.7578605709838243e-11 0.0000000000000000e+00  7.9910805717170449e-08 -7.5961166985685533e-11 0.0000000000000000e+00  7.9984036772000104e-08 -3.9097120411786368e-12 0.0000000000000000e+00  7.9974869540691902e-08 -1.1096681497967535e-12 0.0000000000000000e+00  7.9983888145217089e-08 -1.1090832973254769e-12 0.0000000000000000e+00  7.9986480874227926e-08 -3.2118859764709920e-13 0.0000000000000000e+00  7.9988111325898792e-08 -2.2182123360936426e-13 0.0000000000000000e+00  7.9989191966850318e-08 -1.3019122584310805e-13 0.0000000000000000e+00  7.9989803613154210e-08 -6.1232392953948862e-14 0.0000000000000000e+00  7.9990096774367322e-08 -7.3266851357490755e-15 0.0000000000000000e+00  7.9990117667127098e-08 4.6729037453171885e-14 0.0000000000000000e+00  7.9989867473536453e-08 1.1011440193629277e-13 0.0000000000000000e+00  7.9989309327958993e-08 1.9159762306745217e-13 0.0000000000000000e+00  7.9988352428006907e-08 3.2625198307042746e-13 0.0000000000000000e+00  7.9986713489753052e-08 6.0448470683426563e-13 0.0000000000000000e+00  7.9984363054203547e-08 6.1436313441018851e-13 0.0000000000000000e+00  7.9980075535561197e-08 3.0216576869565574e-12 0.0000000000000000e+00  7.9962302731062102e-08 9.4650690182833710e-12 0.0000000000000000e+00  7.9985743129889134e-08 -2.5499979551894317e-11 0.0000000000000000e+00  7.9507650994169982e-08 4.5614677168513545e-10 0.0000000000000000e+00  -6.3776923616491480e-10 5.8661823153833752e-10 0.0000000000000000e+00  -9.7584490890461152e-11 -8.0672943102941946e-11 0.0000000000000000e+00  -1.4675300446439460e-08 -9.6197484634498454e-09 0.0000000000000000e+00  -6.4377759731354832e-09 -3.4807086658432224e-09 0.0000000000000000e+00  -6.2174913420795047e-09 -1.4732785765987301e-09 0.0000000000000000e+00  -4.3202896518329723e-09 -8.4088701137418729e-10 0.0000000000000000e+00  -3.5666423351866853e-09 -4.8247208266373731e-10 0.0000000000000000e+00  -3.0710271673446964e-09 -3.0266227144779995e-10 0.0000000000000000e+00  -2.7493379159501682e-09 -1.9040736345946448e-10 0.0000000000000000e+00  -2.5513602770286529e-09 -1.1223058621646566e-10 0.0000000000000000e+00  -2.4431799099047101e-09 -5.1671725719362604e-11 0.0000000000000000e+00  -2.4092405707066307e-09 1.5128786711214613e-12 0.0000000000000000e+00  -2.4450253388288120e-09 5.4876219003127457e-11 0.0000000000000000e+00  -2.5553282067432880e-09 1.1599317506548635e-10 0.0000000000000000e+00  -2.7555349133058054e-09 1.9513420613726156e-10 0.0000000000000000e+00  -3.0764783288872902e-09 3.0968306821171667e-10 0.0000000000000000e+00  -3.5870932864158932e-09 4.9357915290836104e-10 0.0000000000000000e+00  -4.3989486929275053e-09 8.3015135939729308e-10 0.0000000000000000e+00  -5.4974363639977411e-09 1.5672443555933957e-09 0.0000000000000000e+00  -9.3834301709555647e-09 3.3042393234970128e-09 0.0000000000000000e+00  -1.0529327654412223e-08 9.3673615021398979e-09 0.0000000000000000e+00  -4.7539373991260533e-10 4.6811619587168669e-10 0.0000000000000000e+00  -1.3320010101679488e-11 -2.0585171502678642e-11 0.0000000000000000e+00  -3.7542660732950841e-09 -7.0938192170594164e-09 0.0000000000000000e+00  -5.0420257377496145e-09 -5.1338056121163438e-09 0.0000000000000000e+00  -4.8741735303298951e-09 -2.9092232695310791e-09 0.0000000000000000e+00  -3.9903502269471435e-09 -1.6491185490979161e-09 0.0000000000000000e+00  -3.5508364512388111e-09 -1.0359894134724710e-09 0.0000000000000000e+00  -3.1674607600012493e-09 -6.6823689473777835e-10 0.0000000000000000e+00  -2.9097223965614231e-09 -4.2778150203296552e-10 0.0000000000000000e+00  -2.7440006454261059e-09 -2.5693088596137544e-10 0.0000000000000000e+00  -2.6506783564672542e-09 -1.2209861409205823e-10 0.0000000000000000e+00  -2.6202798455915272e-09 -2.8795897365292750e-12 0.0000000000000000e+00  -2.6496748909050473e-09 1.1631055181492412e-10 0.0000000000000000e+00  -2.7417317918901012e-09 2.5102880560660046e-10 0.0000000000000000e+00  -2.9058378311693981e-09 4.2145128476120848e-10 0.0000000000000000e+00  -3.1596096006720469e-09 6.5958132430370182e-10 0.0000000000000000e+00  -3.5272167182099117e-09 1.0235594138709927e-09 0.0000000000000000e+00  -4.0263444098374983e-09 1.6307952568648270e-09 0.0000000000000000e+00  -4.7720187743692295e-09 2.7408266314196566e-09 0.0000000000000000e+00  -5.0478457431255935e-09 4.8690384344438870e-09 0.0000000000000000e+00  -3.4057570282970649e-09 9.6815689080799947e-09 0.0000000000000000e+00  1.0944345071519402e-11 1.0518091563601374e-11 0.0000000000000000e+00  -1.6494570941796887e-12 -2.1433022703278899e-11 0.0000000000000000e+00  -1.6725549954276253e-09 -6.0088737367253391e-09 0.0000000000000000e+00  -3.2130042049924631e-09 -4.5217810946460251e-09 0.0000000000000000e+00  -3.4483437163838246e-09 -2.9852229623614266e-09 0.0000000000000000e+00  -3.4254748669768122e-09 -1.9952303974773490e-09 0.0000000000000000e+00  -3.2479987660120490e-09 -1.3507702266357697e-09 0.0000000000000000e+00  -3.0456850600631722e-09 -9.0367125761489033e-10 0.0000000000000000e+00  -2.8900110062141649e-09 -5.9141880961258343e-10 0.0000000000000000e+00  -2.7795468270477541e-09 -3.5778117586038896e-10 0.0000000000000000e+00  -2.7142425221210470e-09 -1.6745280835056007e-10 0.0000000000000000e+00  -2.6924717135977620e-09 3.4154743493738395e-12 0.0000000000000000e+00  -2.7133307646697893e-09 1.7421568167637540e-10 0.0000000000000000e+00  -2.7775465935953154e-09 3.6430003806830512e-10 0.0000000000000000e+00  -2.8869535612183622e-09 5.9742137799660034e-10 0.0000000000000000e+00  -3.0420119844254784e-09 9.0770942277775890e-10 0.0000000000000000e+00  -3.2348303931676588e-09 1.3490448820566356e-09 0.0000000000000000e+00  -3.4349857437477548e-09 2.0082226221472575e-09 0.0000000000000000e+00  -3.4945784733387319e-09 3.0113189650685565e-09 0.0000000000000000e+00  -3.0721988393603081e-09 4.5224214759175954e-09 0.0000000000000000e+00  -1.6954483722544170e-09 5.6059733874640659e-09 0.0000000000000000e+00  -6.6489933600430081e-12 3.3986166401588019e-11 0.0000000000000000e+00  -1.1363895911872783e-12 -1.4187240460971048e-11 0.0000000000000000e+00  -9.7708301935112883e-10 -4.1917455763443877e-09 0.0000000000000000e+00  -1.9958848477517994e-09 -3.5789753903448449e-09 0.0000000000000000e+00  -2.5200599877291996e-09 -2.7756069656745920e-09 0.0000000000000000e+00  -2.7408280035382950e-09 -2.0477460256028803e-09 0.0000000000000000e+00  -2.7620108692082219e-09 -1.4606083350946070e-09 0.0000000000000000e+00  -2.7153676799374481e-09 -1.0237610383866302e-09 0.0000000000000000e+00  -2.6543915291215850e-09 -6.9155048095947546e-10 0.0000000000000000e+00  -2.6007175488715471e-09 -4.2745197076653441e-10 0.0000000000000000e+00  -2.5658133664964792e-09 -2.0427483674149533e-10 0.0000000000000000e+00  -2.5536263562351167e-09 -2.2418133720159088e-13 0.0000000000000000e+00  -2.5651202537787558e-09 2.0370645792254627e-10 0.0000000000000000e+00  -2.5992976006527009e-09 4.2646690296551836e-10 0.0000000000000000e+00  -2.6522509066667090e-09 6.8978350045101480e-10 0.0000000000000000e+00  -2.7138364875719938e-09 1.0210678716291553e-09 0.0000000000000000e+00  -2.7601537134357604e-09 1.4555663966501279e-09 0.0000000000000000e+00  -2.7361237555211897e-09 2.0338779859828304e-09 0.0000000000000000e+00  -2.5320936968049607e-09 2.7817804400304442e-09 0.0000000000000000e+00  -1.9802066879610917e-09 3.6008688373416024e-09 0.0000000000000000e+00  -9.8330659485565225e-10 4.2478338744801929e-09 0.0000000000000000e+00  -3.3122660377881631e-12 1.8438650203249824e-11 0.0000000000000000e+00  -4.9497516550731550e-13 -1.0523791144818381e-11 0.0000000000000000e+00  -6.2604490319751552e-10 -3.2050955565408768e-09 0.0000000000000000e+00  -1.3658303048944286e-09 -2.9254951587256644e-09 0.0000000000000000e+00  -1.8713179799335032e-09 -2.4129965845797164e-09 0.0000000000000000e+00  -2.1610712324023370e-09 -1.8854057048014640e-09 0.0000000000000000e+00  -2.2972940147855715e-09 -1.4231016076974554e-09 0.0000000000000000e+00  -2.3512066450536382e-09 -1.0383161700088305e-09 0.0000000000000000e+00  -2.3617157992224480e-09 -7.2086365613831992e-10 0.0000000000000000e+00  -2.3559938389008180e-09 -4.5365011751829862e-10 0.0000000000000000e+00  -2.3481020364734008e-09 -2.1911707197023096e-10 0.0000000000000000e+00  -2.3446704063414417e-09 -4.6501649346463407e-13 0.0000000000000000e+00  -2.3476719222322332e-09 2.1808682543267860e-10 0.0000000000000000e+00  -2.3551933092462433e-09 4.5229929914807372e-10 0.0000000000000000e+00  -2.3606455000635381e-09 7.1889373472441679e-10 0.0000000000000000e+00  -2.3501942527125488e-09 1.0358416573577733e-09 0.0000000000000000e+00  -2.2979321849888846e-09 1.4205336713275457e-09 0.0000000000000000e+00  -2.1595757218324512e-09 1.8823680292027382e-09 0.0000000000000000e+00  -1.8709577806211448e-09 2.4024073920881024e-09 0.0000000000000000e+00  -1.3656805908024472e-09 2.9109230149031322e-09 0.0000000000000000e+00  -6.4076710173004159e-10 3.2385949566067879e-09 0.0000000000000000e+00  -8.0796978735947090e-13 1.3077856518702168e-11 0.0000000000000000e+00  -3.3953640840490145e-13 -8.1916528877917696e-12 0.0000000000000000e+00  -4.4532081424986349e-10 -2.5169058789375250e-09 0.0000000000000000e+00  -1.0016505725575498e-09 -2.3570039631495571e-09 0.0000000000000000e+00  -1.4314885463664430e-09 -2.0293830700448829e-09 0.0000000000000000e+00  -1.7293062503028715e-09 -1.6628938540029216e-09 0.0000000000000000e+00  -1.9155739779938353e-09 -1.3068501828796137e-09 0.0000000000000000e+00  -2.0233478091362485e-09 -9.8413486532443580e-10 0.0000000000000000e+00  -2.0813394165157565e-09 -6.9942544118569608e-10 0.0000000000000000e+00  -2.1103295334877771e-09 -4.4740815088047704e-10 0.0000000000000000e+00  -2.1231450018455972e-09 -2.1815768548642534e-10 0.0000000000000000e+00  -2.1266209474109637e-09 -4.8864251211034821e-13 0.0000000000000000e+00  -2.1229208838701615e-09 2.1710776475870664e-10 0.0000000000000000e+00  -2.1099514130106459e-09 4.4614761646075684e-10 0.0000000000000000e+00  -2.0809150148955582e-09 6.9783813135839867e-10 0.0000000000000000e+00  -2.0229961932793686e-09 9.8202600791934647e-10 0.0000000000000000e+00  -1.9156201492593943e-09 1.3043685997528602e-09 0.0000000000000000e+00  -1.7299434901171172e-09 1.6603507818711927e-09 0.0000000000000000e+00  -1.4330870851640247e-09 2.0260825522235873e-09 0.0000000000000000e+00  -1.0021312466854775e-09 2.3515666968007981e-09 0.0000000000000000e+00  -4.5532453613247915e-10 2.5339363805904718e-09 0.0000000000000000e+00  -7.0864493980052198e-13 1.0085482594203812e-11 0.0000000000000000e+00  -2.5365875890380184e-13 -6.4281304544094178e-12 0.0000000000000000e+00  -3.3756499564556596e-10 -1.9996395835599460e-09 0.0000000000000000e+00  -7.7168627906871460e-10 -1.9050738174565503e-09 0.0000000000000000e+00  -1.1339764833941463e-09 -1.6871079774811704e-09 0.0000000000000000e+00  -1.4128821252630635e-09 -1.4257273607650387e-09 0.0000000000000000e+00  -1.6110625754285873e-09 -1.1531511643855562e-09 0.0000000000000000e+00  -1.7442958817668895e-09 -8.9008190041951910e-10 0.0000000000000000e+00  -1.8294499923128420e-09 -6.4505561209664584e-10 0.0000000000000000e+00  -1.8805554638737162e-09 -4.1835541339247792e-10 0.0000000000000000e+00  -1.9074096644513971e-09 -2.0571413693604683e-10 0.0000000000000000e+00  -1.9157119894087563e-09 -5.7740478118354068e-13 0.0000000000000000e+00  -1.9073194553864490e-09 2.0451229522852347e-10 0.0000000000000000e+00  -1.8804173075219847e-09 4.1702296631699752e-10 0.0000000000000000e+00  -1.8293576338380483e-09 6.4352370973402912e-10 0.0000000000000000e+00  -1.7443201956853849e-09 8.8829304798218335e-10 0.0000000000000000e+00  -1.6113088278847150e-09 1.1509781792687662e-09 0.0000000000000000e+00  -1.4135847426161804e-09 1.4231561953972107e-09 0.0000000000000000e+00  -1.1359686683622744e-09 1.6845730602306112e-09 0.0000000000000000e+00  -7.7290275943872236e-10 1.9023946392226476e-09 0.0000000000000000e+00  -3.4425159997334025e-10 2.0147108386318825e-09 0.0000000000000000e+00  -4.5268151254725710e-13 7.8040376130511904e-12 0.0000000000000000e+00  -1.9719635704543965e-13 -5.0808968171466472e-12 0.0000000000000000e+00  -2.6781896717203443e-10 -1.5963683751589012e-09 0.0000000000000000e+00  -6.1904709374490617e-10 -1.5375716721474929e-09 0.0000000000000000e+00  -9.2612910150052508e-10 -1.3861500473209306e-09 0.0000000000000000e+00  -1.1780998393717886e-09 -1.1960408370852367e-09 0.0000000000000000e+00  -1.3715847563138289e-09 -9.8781429848707678e-10 0.0000000000000000e+00  -1.5129932486899254e-09 -7.7688591719950126e-10 0.0000000000000000e+00  -1.6111061212418065e-09 -5.7163993744740288e-10 0.0000000000000000e+00  -1.6744712367395922e-09 -3.7487915632791591e-10 0.0000000000000000e+00  -1.7097491043359407e-09 -1.8560841513284695e-10 0.0000000000000000e+00  -1.7210419536178238e-09 -6.0299432005576236e-13 0.0000000000000000e+00  -1.7097346390721089e-09 1.8437501433640217e-10 0.0000000000000000e+00  -1.6744703846749555e-09 3.7356477473916733e-10 0.0000000000000000e+00  -1.6111708919915738e-09 5.7020269099899993e-10 0.0000000000000000e+00  -1.5132044046364769e-09 7.7528967241379595e-10 0.0000000000000000e+00  -1.3720373640058239e-09 9.8602304840590055e-10 0.0000000000000000e+00  -1.1789077055684714e-09 1.1940758149289300e-09 0.0000000000000000e+00  -9.2786327103999395e-10 1.3843120670039740e-09 0.0000000000000000e+00  -6.2012063280595157e-10 1.5359254977887120e-09 0.0000000000000000e+00  -2.7273866768634036e-10 1.6086188944086193e-09 0.0000000000000000e+00  -3.2669866284774851e-13 6.1589649539062084e-12 0.0000000000000000e+00  -1.6209723238714456e-13 -3.9945086096964774e-12 0.0000000000000000e+00  -2.2052230314288188e-10 -1.2689538054244828e-09 0.0000000000000000e+00  -5.1325819594497482e-10 -1.2309696911890732e-09 0.0000000000000000e+00  -7.7700707350699264e-10 -1.1229146244168178e-09 0.0000000000000000e+00  -1.0025695555403644e-09 -9.8296572154294116e-10 0.0000000000000000e+00  -1.1846998352900563e-09 -8.2405943594663626e-10 0.0000000000000000e+00  -1.3249297452212362e-09 -6.5710754419211952e-10 0.0000000000000000e+00  -1.4271623020023182e-09 -4.8912445739593398e-10 0.0000000000000000e+00  -1.4960567708817756e-09 -3.2355264113218776e-10 0.0000000000000000e+00  -1.5356325614861702e-09 -1.6108046625666564e-10 0.0000000000000000e+00  -1.5485274467426569e-09 -5.9971409139712667e-13 0.0000000000000000e+00  -1.5356576829799896e-09 1.5986529464550740e-10 0.0000000000000000e+00  -1.4961256719164112e-09 3.2229244210455292e-10 0.0000000000000000e+00  -1.4273122886448066e-09 4.8779370634162211e-10 0.0000000000000000e+00  -1.3252183122243669e-09 6.5568953172879550e-10 0.0000000000000000e+00  -1.1852119881479143e-09 8.2255854554972607e-10 0.0000000000000000e+00  -1.0033851782394102e-09 9.8146522860595600e-10 0.0000000000000000e+00  -7.7844782341127428e-10 1.1216809373567394e-09 0.0000000000000000e+00  -5.1408740076728170e-10 1.2299386613211129e-09 0.0000000000000000e+00  -2.2420096780524785e-10 1.2790098548145300e-09 0.0000000000000000e+00  -2.5302611436451015e-13 4.8703289100383893e-12 0.0000000000000000e+00  -1.3845909499585025e-13 -3.0853370162689630e-12 0.0000000000000000e+00  -1.8742017030563702e-10 -9.9426010842508173e-10 0.0000000000000000e+00  -4.3806855690572858e-10 -9.6931543983138448e-10 0.0000000000000000e+00  -6.6851069620229182e-10 -8.9131014166736781e-10 0.0000000000000000e+00  -8.7107637172039486e-10 -7.8803092414792766e-10 0.0000000000000000e+00  -1.0401779904809658e-09 -6.6766268797572633e-10 0.0000000000000000e+00  -1.1749414850550228e-09 -5.3776291891188856e-10 0.0000000000000000e+00  -1.2764303608258688e-09 -4.0374561268862693e-10 0.0000000000000000e+00  -1.3467205123924804e-09 -2.6883817325418337e-10 0.0000000000000000e+00  -1.3879055565503602e-09 -1.3442147557447204e-10 0.0000000000000000e+00  -1.4014697859023634e-09 -5.8250842920970026e-13 0.0000000000000000e+00  -1.3879479215128447e-09 1.3324897339520865e-10 0.0000000000000000e+00  -1.3468189288371612e-09 2.6764454264793602e-10 0.0000000000000000e+00  -1.2766120951182390e-09 4.0252178719040798e-10 0.0000000000000000e+00  -1.1752483328076378e-09 5.3650874669978413e-10 0.0000000000000000e+00  -1.0406694037798790e-09 6.6640078395959950e-10 0.0000000000000000e+00  -8.7179994718208559e-10 7.8685562311230132e-10 0.0000000000000000e+00  -6.6965693459930703e-10 8.9044753834035864e-10 0.0000000000000000e+00  -4.3868669631381771e-10 9.6862948192050633e-10 0.0000000000000000e+00  -1.9017400259160751e-10 1.0027946282610279e-09 0.0000000000000000e+00  -2.0223736753750791e-13 3.8213058455160636e-12 0.0000000000000000e+00  -1.2247884773610955e-13 -2.3003896091456419e-12 0.0000000000000000e+00  -1.6399989784713455e-10 -7.5702293921145545e-10 0.0000000000000000e+00  -3.8426747777563208e-10 -7.4080959763777661e-10 0.0000000000000000e+00  -5.8960798678874965e-10 -6.8488178337440554e-10 0.0000000000000000e+00  -7.7343826248880321e-10 -6.0968695316125088e-10 0.0000000000000000e+00  -9.3037122791636209e-10 -5.2040426121602616e-10 0.0000000000000000e+00  -1.0583701212474352e-09 -4.2217049592537174e-10 0.0000000000000000e+00  -1.1568882054664084e-09 -3.1895170933261128e-10 0.0000000000000000e+00  -1.2263791274820820e-09 -2.1342057171655715e-10 0.0000000000000000e+00  -1.2676345200270676e-09 -1.0707861590189516e-10 0.0000000000000000e+00  -1.2813168276422313e-09 -5.6013984532607551e-13 0.0000000000000000e+00  -1.2676805759482948e-09 1.0595651952160578e-10 0.0000000000000000e+00  -1.2264810596533659e-09 2.1229453899845355e-10 0.0000000000000000e+00  -1.1570656639795958e-09 3.1782429574908845e-10 0.0000000000000000e+00  -1.0586522933869298e-09 4.2105335698243720e-10 0.0000000000000000e+00  -9.3079567536834373e-10 5.1932823936822573e-10 0.0000000000000000e+00  -7.7402844320806392e-10 6.0873855024693984e-10 0.0000000000000000e+00  -5.9047957318487351e-10 6.8424377888115394e-10 0.0000000000000000e+00  -3.8471313015893458e-10 7.4031437381283343e-10 0.0000000000000000e+00  -1.6603144413481491e-10 7.6446734770857408e-10 0.0000000000000000e+00  -1.6734706534941389e-13 2.9386980105522252e-12 0.0000000000000000e+00  -1.1226726004935134e-13 -1.6014892976594645e-12 0.0000000000000000e+00  -1.4767531959832997e-10 -5.4632578077357707e-10 0.0000000000000000e+00  -3.4641037219262449e-10 -5.3639174367588770e-10 0.0000000000000000e+00  -5.3346793858484818e-10 -4.9769008973352568e-10 0.0000000000000000e+00  -7.0294664666106913e-10 -4.4511822084233920e-10 0.0000000000000000e+00  -8.4979551489244396e-10 -3.8187746793502506e-10 0.0000000000000000e+00  -9.7143191080270853e-10 -3.1134649656895107e-10 0.0000000000000000e+00  -1.0664219198074586e-09 -2.3627414344713167e-10 0.0000000000000000e+00  -1.1342448853659932e-09 -1.5866997795120979e-10 0.0000000000000000e+00  -1.1748630972184985e-09 -7.9838155711402204e-11 0.0000000000000000e+00  -1.1883944279804817e-09 -5.3830978818765137e-13 0.0000000000000000e+00  -1.1749040042773178e-09 7.8763760709374591e-11 0.0000000000000000e+00  -1.1343334541617279e-09 1.5760368253632323e-10 0.0000000000000000e+00  -1.0665714497811756e-09 2.3522626753911069e-10 0.0000000000000000e+00  -9.7166130554533790e-10 3.1033530747099907e-10 0.0000000000000000e+00  -8.5012697569432993e-10 3.8093594840074630e-10 0.0000000000000000e+00  -7.0338986574062971e-10 4.4432221182197314e-10 0.0000000000000000e+00  -5.3409313535347327e-10 4.9718937694727180e-10 0.0000000000000000e+00  -3.4671718342157457e-10 5.3600502695155911e-10 0.0000000000000000e+00  -1.4911105920141361e-10 5.5300095339665231e-10 0.0000000000000000e+00  -1.4296216101890968e-13 2.1720637261333453e-12 0.0000000000000000e+00  -1.0673226286447897e-13 -9.5955918583359835e-13 0.0000000000000000e+00  -1.3692389586426659e-10 -3.5383335405339091e-10 0.0000000000000000e+00  -3.2123160046977932e-10 -3.4879389066975558e-10 0.0000000000000000e+00  -4.9585770797596743e-10 -3.2438068451548260e-10 0.0000000000000000e+00  -6.5524817520916619e-10 -2.9101543594750931e-10 0.0000000000000000e+00  -7.9466585753533200e-1