<?xml version="1.0"?>
<VTKFile type="UnstructuredGrid"  version="0.1"  >
<UnstructuredGrid>
<Piece  NumberOfPoints="651" NumberOfCells="1200">
<Points>
<DataArray  type="Float64"  NumberOfComponents="3"  format="ascii">0 0 0  50000 0 0  100000 0 0  150000 0 0  200000 0 0  250000 0 0  300000 0 0  350000 0 0  400000 0 0  450000 0 0  500000 0 0  550000 0 0  600000 0 0  650000 0 0  700000 0 0  750000 0 0  800000 0 0  850000 0 0  900000 0 0  950000 0 0  1000000 0 0  0 50000 0  50000 50000 0  100000 50000 0  150000 50000 0  200000 50000 0  250000 50000 0  300000 50000 0  350000 50000 0  400000 50000 0  450000 50000 0  500000 50000 0  550000 50000 0  600000 50000 0  650000 50000 0  700000 50000 0  750000 50000 0  800000 50000 0  850000 50000 0  900000 50000 0  950000 50000 0  1000000 50000 0  0 100000 0  50000 100000 0  100000 100000 0  150000 100000 0  200000 100000 0  250000 100000 0  300000 100000 0  350000 100000 0  400000 100000 0  450000 100000 0  500000 100000 0  550000 100000 0  600000 100000 0  650000 100000 0  700000 100000 0  750000 100000 0  800000 100000 0  850000 100000 0  900000 100000 0  950000 100000 0  1000000 100000 0  0 150000 0  50000 150000 0  100000 150000 0  150000 150000 0  200000 150000 0  250000 150000 0  300000 150000 0  350000 150000 0  400000 150000 0  450000 150000 0  500000 150000 0  550000 150000 0  600000 150000 0  650000 150000 0  700000 150000 0  750000 150000 0  800000 150000 0  850000 150000 0  900000 150000 0  950000 150000 0  1000000 150000 0  0 200000 0  50000 200000 0  100000 200000 0  150000 200000 0  200000 200000 0  250000 200000 0  300000 200000 0  350000 200000 0  400000 200000 0  450000 200000 0  500000 200000 0  550000 200000 0  600000 200000 0  650000 200000 0  700000 200000 0  750000 200000 0  800000 200000 0  850000 200000 0  900000 200000 0  950000 200000 0  1000000 200000 0  0 250000 0  50000 250000 0  100000 250000 0  150000 250000 0  200000 250000 0  250000 250000 0  300000 250000 0  350000 250000 0  400000 250000 0  450000 250000 0  500000 250000 0  550000 250000 0  600000 250000 0  650000 250000 0  700000 250000 0  750000 250000 0  800000 250000 0  850000 250000 0  900000 250000 0  950000 250000 0  1000000 250000 0  0 300000 0  50000 300000 0  100000 300000 0  150000 300000 0  200000 300000 0  250000 300000 0  300000 300000 0  350000 300000 0  400000 300000 0  450000 300000 0  500000 300000 0  550000 300000 0  600000 300000 0  650000 300000 0  700000 300000 0  750000 300000 0  800000 300000 0  850000 300000 0  900000 300000 0  950000 300000 0  1000000 300000 0  0 350000 0  50000 350000 0  100000 350000 0  150000 350000 0  200000 350000 0  250000 350000 0  300000 350000 0  350000 350000 0  400000 350000 0  450000 350000 0  500000 350000 0  550000 350000 0  600000 350000 0  650000 350000 0  700000 350000 0  750000 350000 0  800000 350000 0  850000 350000 0  900000 350000 0  950000 350000 0  1000000 350000 0  0 400000 0  50000 400000 0  100000 400000 0  150000 400000 0  200000 400000 0  250000 400000 0  300000 400000 0  350000 400000 0  400000 400000 0  450000 400000 0  500000 400000 0  550000 400000 0  600000 400000 0  650000 400000 0  700000 400000 0  750000 400000 0  800000 400000 0  850000 400000 0  900000 400000 0  950000 400000 0  1000000 400000 0  0 450000 0  50000 450000 0  100000 450000 0  150000 450000 0  200000 450000 0  250000 450000 0  300000 450000 0  350000 450000 0  400000 450000 0  450000 450000 0  500000 450000 0  550000 450000 0  600000 450000 0  650000 450000 0  700000 450000 0  750000 450000 0  800000 450000 0  850000 450000 0  900000 450000 0  950000 450000 0  1000000 450000 0  0 500000 0  50000 500000 0  100000 500000 0  150000 500000 0  200000 500000 0  250000 500000 0  300000 500000 0  350000 500000 0  400000 500000 0  450000 500000 0  500000 500000 0  550000 500000 0  600000 500000 0  650000 500000 0  700000 500000 0  750000 500000 0  800000 500000 0  850000 500000 0  900000 500000 0  950000 500000 0  1000000 500000 0  0 550000 0  50000 550000 0  100000 550000 0  150000 550000 0  200000 550000 0  250000 550000 0  300000 550000 0  350000 550000 0  400000 550000 0  450000 550000 0  500000 550000 0  550000 550000 0  600000 550000 0  650000 550000 0  700000 550000 0  750000 550000 0  800000 550000 0  850000 550000 0  900000 550000 0  950000 550000 0  1000000 550000 0  0 600000 0  50000 600000 0  100000 600000 0  150000 600000 0  200000 600000 0  250000 600000 0  300000 600000 0  350000 600000 0  400000 600000 0  450000 600000 0  500000 600000 0  550000 600000 0  600000 600000 0  650000 600000 0  700000 600000 0  750000 600000 0  800000 600000 0  850000 600000 0  900000 600000 0  950000 600000 0  1000000 600000 0  0 650000 0  50000 650000 0  100000 650000 0  150000 650000 0  200000 650000 0  250000 650000 0  300000 650000 0  350000 650000 0  400000 650000 0  450000 650000 0  500000 650000 0  550000 650000 0  600000 650000 0  650000 650000 0  700000 650000 0  750000 650000 0  800000 650000 0  850000 650000 0  900000 650000 0  950000 650000 0  1000000 650000 0  0 700000 0  50000 700000 0  100000 700000 0  150000 700000 0  200000 700000 0  250000 700000 0  300000 700000 0  350000 700000 0  400000 700000 0  450000 700000 0  500000 700000 0  550000 700000 0  600000 700000 0  650000 700000 0  700000 700000 0  750000 700000 0  800000 700000 0  850000 700000 0  900000 700000 0  950000 700000 0  1000000 700000 0  0 750000 0  50000 750000 0  100000 750000 0  150000 750000 0  200000 750000 0  250000 750000 0  300000 750000 0  350000 750000 0  400000 750000 0  450000 750000 0  500000 750000 0  550000 750000 0  600000 750000 0  650000 750000 0  700000 750000 0  750000 750000 0  800000 750000 0  850000 750000 0  900000 750000 0  950000 750000 0  1000000 750000 0  0 800000 0  50000 800000 0  100000 800000 0  150000 800000 0  200000 800000 0  250000 800000 0  300000 800000 0  350000 800000 0  400000 800000 0  450000 800000 0  500000 800000 0  550000 800000 0  600000 800000 0  650000 800000 0  700000 800000 0  750000 800000 0  800000 800000 0  850000 800000 0  900000 800000 0  950000 800000 0  1000000 800000 0  0 850000 0  50000 850000 0  100000 850000 0  150000 850000 0  200000 850000 0  250000 850000 0  300000 850000 0  350000 850000 0  400000 850000 0  450000 850000 0  500000 850000 0  550000 850000 0  600000 850000 0  650000 850000 0  700000 850000 0  750000 850000 0  800000 850000 0  850000 850000 0  900000 850000 0  950000 850000 0  1000000 850000 0  0 900000 0  50000 900000 0  100000 900000 0  150000 900000 0  200000 900000 0  250000 900000 0  300000 900000 0  350000 900000 0  400000 900000 0  450000 900000 0  500000 900000 0  550000 900000 0  600000 900000 0  650000 900000 0  700000 900000 0  750000 900000 0  800000 900000 0  850000 900000 0  900000 900000 0  950000 900000 0  1000000 900000 0  0 950000 0  50000 950000 0  100000 950000 0  150000 950000 0  200000 950000 0  250000 950000 0  300000 950000 0  350000 950000 0  400000 950000 0  450000 950000 0  500000 950000 0  550000 950000 0  600000 950000 0  650000 950000 0  700000 950000 0  750000 950000 0  800000 950000 0  850000 950000 0  900000 950000 0  950000 950000 0  1000000 950000 0  0 1000000 0  50000 1000000 0  100000 1000000 0  150000 1000000 0  200000 1000000 0  250000 1000000 0  300000 1000000 0  350000 1000000 0  400000 1000000 0  450000 1000000 0  500000 1000000 0  550000 1000000 0  600000 1000000 0  650000 1000000 0  700000 1000000 0  750000 1000000 0  800000 1000000 0  850000 1000000 0  900000 1000000 0  950000 1000000 0  1000000 1000000 0  0 1050000 0  50000 1050000 0  100000 1050000 0  150000 1050000 0  200000 1050000 0  250000 1050000 0  300000 1050000 0  350000 1050000 0  400000 1050000 0  450000 1050000 0  500000 1050000 0  550000 1050000 0  600000 1050000 0  650000 1050000 0  700000 1050000 0  750000 1050000 0  800000 1050000 0  850000 1050000 0  900000 1050000 0  950000 1050000 0  1000000 1050000 0  0 1100000 0  50000 1100000 0  100000 1100000 0  150000 1100000 0  200000 1100000 0  250000 1100000 0  300000 1100000 0  350000 1100000 0  400000 1100000 0  450000 1100000 0  500000 1100000 0  550000 1100000 0  600000 1100000 0  650000 1100000 0  700000 1100000 0  750000 1100000 0  800000 1100000 0  850000 1100000 0  900000 1100000 0  950000 1100000 0  1000000 1100000 0  0 1150000 0  50000 1150000 0  100000 1150000 0  150000 1150000 0  200000 1150000 0  250000 1150000 0  300000 1150000 0  350000 1150000 0  400000 1150000 0  450000 1150000 0  500000 1150000 0  550000 1150000 0  600000 1150000 0  650000 1150000 0  700000 1150000 0  750000 1150000 0  800000 1150000 0  850000 1150000 0  900000 1150000 0  950000 1150000 0  1000000 1150000 0  0 1200000 0  50000 1200000 0  100000 1200000 0  150000 1200000 0  200000 1200000 0  250000 1200000 0  300000 1200000 0  350000 1200000 0  400000 1200000 0  450000 1200000 0  500000 1200000 0  550000 1200000 0  600000 1200000 0  650000 1200000 0  700000 1200000 0  750000 1200000 0  800000 1200000 0  850000 1200000 0  900000 1200000 0  950000 1200000 0  1000000 1200000 0  0 1250000 0  50000 1250000 0  100000 1250000 0  150000 1250000 0  200000 1250000 0  250000 1250000 0  300000 1250000 0  350000 1250000 0  400000 1250000 0  450000 1250000 0  500000 1250000 0  550000 1250000 0  600000 1250000 0  650000 1250000 0  700000 1250000 0  750000 1250000 0  800000 1250000 0  850000 1250000 0  900000 1250000 0  950000 1250000 0  1000000 1250000 0  0 1300000 0  50000 1300000 0  100000 1300000 0  150000 1300000 0  200000 1300000 0  250000 1300000 0  300000 1300000 0  350000 1300000 0  400000 1300000 0  450000 1300000 0  500000 1300000 0  550000 1300000 0  600000 1300000 0  650000 1300000 0  700000 1300000 0  750000 1300000 0  800000 1300000 0  850000 1300000 0  900000 1300000 0  950000 1300000 0  1000000 1300000 0  0 1350000 0  50000 1350000 0  100000 1350000 0  150000 1350000 0  200000 1350000 0  250000 1350000 0  300000 1350000 0  350000 1350000 0  400000 1350000 0  450000 1350000 0  500000 1350000 0  550000 1350000 0  600000 1350000 0  650000 1350000 0  700000 135
[...]
<PointData  Vectors="f_25021"> 
<DataArray  type="Float64"  Name="f_25021"  NumberOfComponents="3" format="ascii">-9.8955568524264372e-11 -6.2948902144819563e-11 0.0000000000000000e+00  7.9932154419600329e-08 -5.5914547037504380e-11 0.0000000000000000e+00  7.9995189704806368e-08 1.8866854128774861e-12 0.0000000000000000e+00  7.9986092567214344e-08 1.4609628634122369e-12 0.0000000000000000e+00  7.9992848700987194e-08 3.6059729177277459e-13 0.0000000000000000e+00  7.9994086612683404e-08 4.8645766189419531e-13 0.0000000000000000e+00  7.9994962326874094e-08 2.5881357285853646e-13 0.0000000000000000e+00  7.9995507738851390e-08 1.7069556460778369e-13 0.0000000000000000e+00  7.9995802720148094e-08 1.0366689131263557e-13 0.0000000000000000e+00  7.9995945239980272e-08 5.0915864120560753e-14 0.0000000000000000e+00  7.9995954783055175e-08 5.9856070956122408e-15 0.0000000000000000e+00  7.9995833278553548e-08 -3.6779995634669234e-14 0.0000000000000000e+00  7.9995557605568595e-08 -8.4552581971993260e-14 0.0000000000000000e+00  7.9995085111758506e-08 -1.4600266445237680e-13 0.0000000000000000e+00  7.9994194286182374e-08 -1.3538047801963900e-13 0.0000000000000000e+00  7.9992961715399459e-08 -5.8787639846133931e-13 0.0000000000000000e+00  7.9990371491947034e-08 6.0998212040363230e-13 0.0000000000000000e+00  7.9975958512474237e-08 4.2656599248632476e-12 0.0000000000000000e+00  7.9995000798998764e-08 -3.1165731141644216e-11 0.0000000000000000e+00  7.9584249391455492e-08 3.7467648971196565e-10 0.0000000000000000e+00  -5.4501279603063427e-10 4.7729304762151448e-10 0.0000000000000000e+00  -7.7324857519095219e-11 -5.9628793017241584e-11 0.0000000000000000e+00  -1.1992041895676801e-08 -1.8151096793548070e-08 0.0000000000000000e+00  1.2194998241112235e-09 -5.8105178240243434e-09 0.0000000000000000e+00  3.4045413411077475e-09 -2.6779533354905883e-09 0.0000000000000000e+00  6.6996425906423827e-09 -1.3251265179846050e-09 0.0000000000000000e+00  8.0071882524935457e-09 -7.5287672495507084e-10 0.0000000000000000e+00  8.8900635965842513e-09 -4.7357271532442783e-10 0.0000000000000000e+00  9.4402028791385784e-09 -3.0060843626873988e-10 0.0000000000000000e+00  9.7760316405593781e-09 -1.8463899429584554e-10 0.0000000000000000e+00  9.9597530556563795e-09 -9.6084227482057542e-11 0.0000000000000000e+00  1.0017824625803005e-08 -1.9055805495371542e-11 0.0000000000000000e+00  9.9587777030430721e-09 5.7972813114030954e-11 0.0000000000000000e+00  9.7742876807615552e-09 1.4660744834249036e-10 0.0000000000000000e+00  9.4358318369760986e-09 2.6257503841816656e-10 0.0000000000000000e+00  8.8890025168307996e-09 4.3420753191846805e-10 0.0000000000000000e+00  8.0137171687815443e-09 7.2000610001684458e-10 0.0000000000000000e+00  6.5506323266780129e-09 1.2503905463217884e-09 0.0000000000000000e+00  4.3860413434313872e-09 2.5936425992253195e-09 0.0000000000000000e+00  -2.1076178363206288e-09 6.0292935914309100e-09 0.0000000000000000e+00  -8.2058455574787603e-09 1.7228387139562163e-08 0.0000000000000000e+00  -3.9998441655903349e-10 3.8379435559985451e-10 0.0000000000000000e+00  -7.1910770866205608e-12 -1.0351756892835299e-11 0.0000000000000000e+00  -6.9146096237984708e-09 -1.3810496998365075e-08 0.0000000000000000e+00  -9.2952525292649446e-09 -9.3070986064073644e-09 0.0000000000000000e+00  -8.6644374576180525e-09 -5.2208204468415935e-09 0.0000000000000000e+00  -6.9920240739419099e-09 -2.8669330381525658e-09 0.0000000000000000e+00  -6.1194353943444395e-09 -1.7587473754031663e-09 0.0000000000000000e+00  -5.3456564240039071e-09 -1.1092869823191847e-09 0.0000000000000000e+00  -4.8642239583878273e-09 -6.9671328454007984e-10 0.0000000000000000e+00  -4.5502514556680931e-09 -4.0932836828612649e-10 0.0000000000000000e+00  -4.3755863677267008e-09 -1.8500875963606079e-10 0.0000000000000000e+00  -4.3196750965835164e-09 1.1929872642832023e-11 0.0000000000000000e+00  -4.3759016220957973e-09 2.0887173312489730e-10 0.0000000000000000e+00  -4.5506053069324448e-09 4.3307784293085359e-10 0.0000000000000000e+00  -4.8634820589316176e-09 7.2061777767063404e-10 0.0000000000000000e+00  -5.3521858188077224e-09 1.1305440379496497e-09 0.0000000000000000e+00  -6.0787803496238054e-09 1.7745451282935242e-09 0.0000000000000000e+00  -7.0935276307772702e-09 2.8962559386242437e-09 0.0000000000000000e+00  -8.5692355638770619e-09 5.0504222595177588e-09 0.0000000000000000e+00  -9.4472936348562208e-09 9.4293575321497785e-09 0.0000000000000000e+00  -5.8745665047521704e-09 1.6538198332867857e-08 0.0000000000000000e+00  1.1797078956169636e-11 2.6868232876076040e-13 0.0000000000000000e+00  1.2904583369085263e-12 -1.1507784906210099e-11 0.0000000000000000e+00  -2.9229618848672429e-09 -1.0251285433303877e-08 0.0000000000000000e+00  -5.7635447851655282e-09 -8.3963962094647248e-09 0.0000000000000000e+00  -6.3621063703547023e-09 -5.5038834833112838e-09 0.0000000000000000e+00  -6.2496178356277620e-09 -3.6394029701963064e-09 0.0000000000000000e+00  -5.8796990679080926e-09 -2.4154321382640414e-09 0.0000000000000000e+00  -5.4610319855750739e-09 -1.5953532859653336e-09 0.0000000000000000e+00  -5.1636574574252769e-09 -1.0386749556985089e-09 0.0000000000000000e+00  -4.9457187210657174e-09 -6.2714377254591883e-10 0.0000000000000000e+00  -4.8205755593559323e-09 -2.9587868021977789e-10 0.0000000000000000e+00  -4.7791856966674016e-09 -4.1179508404695984e-13 0.0000000000000000e+00  -4.8199317270521024e-09 2.9505776093719875e-10 0.0000000000000000e+00  -4.9447694214076864e-09 6.2611359596677035e-10 0.0000000000000000e+00  -5.1588576671277517e-09 1.0372856362700481e-09 0.0000000000000000e+00  -5.4667608041582263e-09 1.5943820873029789e-09 0.0000000000000000e+00  -5.8567987984106125e-09 2.4051144286715453e-09 0.0000000000000000e+00  -6.2720351710369321e-09 3.6506059415894914e-09 0.0000000000000000e+00  -6.4283836413904904e-09 5.5954972791591112e-09 0.0000000000000000e+00  -5.5741766712777084e-09 8.4634666453700518e-09 0.0000000000000000e+00  -2.8473442916748109e-09 9.6490792212244699e-09 0.0000000000000000e+00  -6.5600289197992597e-13 2.0420964268979990e-11 0.0000000000000000e+00  5.6667933899729141e-13 -6.8756142790912002e-12 0.0000000000000000e+00  -1.5359468301762374e-09 -7.0504781071077798e-09 0.0000000000000000e+00  -3.4567076251873868e-09 -6.6094395055459963e-09 0.0000000000000000e+00  -4.5042878945267412e-09 -5.1284003643251468e-09 0.0000000000000000e+00  -4.9186939874195128e-09 -3.7358852243784215e-09 0.0000000000000000e+00  -4.9308533770512876e-09 -2.6343073348752955e-09 0.0000000000000000e+00  -4.8315541370883517e-09 -1.8311856623874284e-09 0.0000000000000000e+00  -4.7063088143353652e-09 -1.2291277037011098e-09 0.0000000000000000e+00  -4.5963243092062127e-09 -7.5566967335569340e-10 0.0000000000000000e+00  -4.5277890295863867e-09 -3.5988724449923356e-10 0.0000000000000000e+00  -4.5038674870612253e-09 2.6552788858137671e-13 0.0000000000000000e+00  -4.5271674747346800e-09 3.6037927004180349e-10 0.0000000000000000e+00  -4.5959262570060344e-09 7.5605950296684841e-10 0.0000000000000000e+00  -4.7036166702983006e-09 1.2287535743391431e-09 0.0000000000000000e+00  -4.8319153748829066e-09 1.8319510270143655e-09 0.0000000000000000e+00  -4.9356151402307737e-09 2.6362981708906920e-09 0.0000000000000000e+00  -4.9055025383434780e-09 3.7234081702386317e-09 0.0000000000000000e+00  -4.5187504663146731e-09 5.1430028066825285e-09 0.0000000000000000e+00  -3.4325470194276200e-09 6.6679938166171695e-09 0.0000000000000000e+00  -1.4847953950946275e-09 7.0778557604128656e-09 0.0000000000000000e+00  -1.2283066168824440e-12 9.9084747166266837e-12 0.0000000000000000e+00  5.4921136693497068e-13 -4.8242698264185763e-12 0.0000000000000000e+00  -9.4219599329805992e-10 -5.3158617772411338e-09 0.0000000000000000e+00  -2.3086668346772231e-09 -5.3336122187566922e-09 0.0000000000000000e+00  -3.2811629726955120e-09 -4.4192940250998949e-09 0.0000000000000000e+00  -3.8231466110433675e-09 -3.4324528023562345e-09 0.0000000000000000e+00  -4.0740669127791410e-09 -2.5773785036076502e-09 0.0000000000000000e+00  -4.1672426015550687e-09 -1.8712664537142275e-09 0.0000000000000000e+00  -4.1766303058945556e-09 -1.2919836485361540e-09 0.0000000000000000e+00  -4.1597336835594321e-09 -8.0997765739777711e-10 0.0000000000000000e+00  -4.1415671409119446e-09 -3.9002047804266700e-10 0.0000000000000000e+00  -4.1340110242003411e-09 1.3226665061654133e-13 0.0000000000000000e+00  -4.1412048706812032e-09 3.9023096022546399e-10 0.0000000000000000e+00  -4.1594048450793402e-09 8.1021200330817243e-10 0.0000000000000000e+00  -4.1763319906813517e-09 1.2921138719776460e-09 0.0000000000000000e+00  -4.1656283121662797e-09 1.8708733699771244e-09 0.0000000000000000e+00  -4.0767657775015696e-09 2.5805700174962281e-09 0.0000000000000000e+00  -3.8220499169729848e-09 3.4394561837368856e-09 0.0000000000000000e+00  -3.2722383041173789e-09 4.4066619809073223e-09 0.0000000000000000e+00  -2.2985120586490704e-09 5.3145416536479875e-09 0.0000000000000000e+00  -9.4000435450973183e-10 5.3218512517075309e-09 0.0000000000000000e+00  7.0283497134043785e-13 6.1269577220291169e-12 0.0000000000000000e+00  3.8890829034981879e-13 -3.6574894966114135e-12 0.0000000000000000e+00  -6.5580746980487102e-10 -4.1293598441707390e-09 0.0000000000000000e+00  -1.6604097051540511e-09 -4.2477801940292867e-09 0.0000000000000000e+00  -2.4709644861084033e-09 -3.6871466484136225e-09 0.0000000000000000e+00  -3.0284269409699694e-09 -3.0213186174041473e-09 0.0000000000000000e+00  -3.3737388961049604e-09 -2.3685581388270355e-09 0.0000000000000000e+00  -3.5682154944206293e-09 -1.7766306151006384e-09 0.0000000000000000e+00  -3.6698657520818223e-09 -1.2585788137136804e-09 0.0000000000000000e+00  -3.7193460257081853e-09 -8.0305820111811147e-10 0.0000000000000000e+00  -3.7400665804006763e-09 -3.9055415189742203e-10 0.0000000000000000e+00  -3.7456043456827530e-09 4.0334098403626782e-14 0.0000000000000000e+00  -3.7399394050524122e-09 3.9061234330109413e-10 0.0000000000000000e+00  -3.7190220954888523e-09 8.0308269225290971e-10 0.0000000000000000e+00  -3.6698835034369959e-09 1.2588493583395076e-09 0.0000000000000000e+00  -3.5677751068544726e-09 1.7767826371590642e-09 0.0000000000000000e+00  -3.3726052334027353e-09 2.3675365881718884e-09 0.0000000000000000e+00  -3.0276473050562676e-09 3.0212046671559750e-09 0.0000000000000000e+00  -2.4687967234975391e-09 3.6888593925534354e-09 0.0000000000000000e+00  -1.6563760766475833e-09 4.2502035985496401e-09 0.0000000000000000e+00  -6.5429862757207529e-10 4.1280169211208867e-09 0.0000000000000000e+00  2.6634407158376783e-13 4.6758161881625862e-12 0.0000000000000000e+00  2.9927370148179270e-13 -2.8096146168944192e-12 0.0000000000000000e+00  -4.8827559570917535e-10 -3.2587537105091449e-09 0.0000000000000000e+00  -1.2616734776135337e-09 -3.4139681081193755e-09 0.0000000000000000e+00  -1.9354138861433616e-09 -3.0520803276518668e-09 0.0000000000000000e+00  -2.4520143140875073e-09 -2.5808392262392383e-09 0.0000000000000000e+00  -2.8170087830483970e-09 -2.0847239148062966e-09 0.0000000000000000e+00  -3.0601193009669929e-09 -1.6065185966799060e-09 0.0000000000000000e+00  -3.2139941310819671e-09 -1.1622908463691800e-09 0.0000000000000000e+00  -3.3051211789386906e-09 -7.5240198378748770e-10 0.0000000000000000e+00  -3.3525209656625878e-09 -3.6910977849717220e-10 0.0000000000000000e+00  -3.3671657408996566e-09 -1.4366334155519602e-14 0.0000000000000000e+00  -3.3524635571321528e-09 3.6909153366402109e-10 0.0000000000000000e+00  -3.3049422837426810e-09 7.5235845149290446e-10 0.0000000000000000e+00  -3.2137336010587384e-09 1.1622222482057917e-09 0.0000000000000000e+00  -3.0598777434226379e-09 1.6066670841692895e-09 0.0000000000000000e+00  -2.8162763296409446e-09 2.0845284235211809e-09 0.0000000000000000e+00  -2.4505854485830960e-09 2.5786556264023976e-09 0.0000000000000000e+00  -1.9343600315231293e-09 3.0482833220408461e-09 0.0000000000000000e+00  -1.2611106548915371e-09 3.4150480944014906e-09 0.0000000000000000e+00  -4.8787884524205683e-10 3.2627898268464946e-09 0.0000000000000000e+00  2.6788833644221465e-13 3.4807331726224091e-12 0.0000000000000000e+00  2.4144370483481362e-13 -2.1911050242569154e-12 0.0000000000000000e+00  -3.8292787731935207e-10 -2.5899717300369369e-09 0.0000000000000000e+00  -1.0021280152695518e-09 -2.7416977282526825e-09 0.0000000000000000e+00  -1.5661475791924291e-09 -2.4947375767814965e-09 0.0000000000000000e+00  -2.0282967175072114e-09 -2.1563615505617734e-09 0.0000000000000000e+00  -2.3829521745292203e-09 -1.7818205270862648e-09 0.0000000000000000e+00  -2.6410391152844791e-09 -1.4008398638960754e-09 0.0000000000000000e+00  -2.8190104601913618e-09 -1.0297525806402355e-09 0.0000000000000000e+00  -2.9332867193556621e-09 -6.7446967202867010e-10 0.0000000000000000e+00  -2.9966539056717516e-09 -3.3327995225522005e-10 0.0000000000000000e+00  -3.0168817441785723e-09 -6.5401168555200717e-14 0.0000000000000000e+00  -2.9965898416943546e-09 3.3314899510028805e-10 0.0000000000000000e+00  -2.9331662798271119e-09 6.7433595669492962e-10 0.0000000000000000e+00  -2.8187636832662973e-09 1.0295265398388827e-09 0.0000000000000000e+00  -2.6406453426405999e-09 1.4003886906478103e-09 0.0000000000000000e+00  -2.3824741068007192e-09 1.7811470937116325e-09 0.0000000000000000e+00  -2.0276788270985438e-09 2.1552372142085538e-09 0.0000000000000000e+00  -1.5657875309251494e-09 2.4929367206745949e-09 0.0000000000000000e+00  -1.0021517070482211e-09 2.7433966006713464e-09 0.0000000000000000e+00  -3.8297330351346107e-10 2.5928647693126121e-09 0.0000000000000000e+00  2.2450380458333096e-13 2.6982901016372407e-12 0.0000000000000000e+00  2.0057915868496775e-13 -1.7039311132244673e-12 0.0000000000000000e+00  -3.1248803238615125e-10 -2.0516774791563366e-09 0.0000000000000000e+00  -8.2436946858241916e-10 -2.1865734688549026e-09 0.0000000000000000e+00  -1.3042181434814682e-09 -2.0136698996799040e-09 0.0000000000000000e+00  -1.7147627734032724e-09 -1.7669648221747300e-09 0.0000000000000000e+00  -2.0466224084520815e-09 -1.4830013270455022e-09 0.0000000000000000e+00  -2.3016359644331588e-09 -1.1828608749680401e-09 0.0000000000000000e+00  -2.4870314046267263e-09 -8.8023001925717346e-10 0.0000000000000000e+00  -2.6116327893316950e-09 -5.8185478243297848e-10 0.0000000000000000e+00  -2.6830321486229666e-09 -2.8914287194445151e-10 0.0000000000000000e+00  -2.7062332213317570e-09 -1.0360718177884032e-13 0.0000000000000000e+00  -2.6829720465351395e-09 2.8892265258421836e-10 0.0000000000000000e+00  -2.6115116129577850e-09 5.8160029071209693e-10 0.0000000000000000e+00  -2.4868400794147395e-09 8.7990859724447525e-10 0.0000000000000000e+00  -2.3013420491455655e-09 1.1823512819064713e-09 0.0000000000000000e+00  -2.0462813492459431e-09 1.4821248224487020e-09 0.0000000000000000e+00  -1.7144870690026900e-09 1.7656905679085298e-09 0.0000000000000000e+00  -1.3042632177109204e-09 2.0123610171562303e-09 0.0000000000000000e+00  -8.2465569059233417e-10 2.1885481948646486e-09 0.0000000000000000e+00  -3.1258604240203587e-10 2.0543483276098151e-09 0.0000000000000000e+00  1.8938989204917664e-13 2.1032640772975656e-12 0.0000000000000000e+00  1.7204530466131777e-13 -1.3052616520140501e-12 0.0000000000000000e+00  -2.6360160097871885e-10 -1.6036306700153261e-09 0.0000000000000000e+00  -6.9921019204481842e-10 -1.7167825064867774e-09 0.0000000000000000e+00  -1.1153293549547289e-09 -1.5937074309447668e-09 0.0000000000000000e+00  -1.4815591523426623e-09 -1.4127573906129660e-09 0.0000000000000000e+00  -1.7879253443330551e-09 -1.1988403482374800e-09 0.0000000000000000e+00  -2.0320266728194785e-09 -9.6637046252547984e-10 0.0000000000000000e+00  -2.2156784667507464e-09 -7.2567325157506442e-10 0.0000000000000000e+00  -2.3427108584584680e-09 -4.8298742787323327e-10 0.0000000000000000e+00  -2.4170413981933401e-09 -2.4105618651054306e-10 0.0000000000000000e+00  -2.4414698685376190e-09 -1.4043758161315543e-13 0.0000000000000000e+00  -2.4169924444845143e-09 2.4076250063661854e-10 0.0000000000000000e+00  -2.3426077094486626e-09 4.8264759984392730e-10 0.0000000000000000e+00  -2.2155256144957649e-09 7.2524502873865900e-10 0.0000000000000000e+00  -2.0318373393794810e-09 9.6580563440146627e-10 0.0000000000000000e+00  -1.7877534038924154e-09 1.1980762469515064e-09 0.0000000000000000e+00  -1.4814753257225610e-09 1.4117789110570261e-09 0.0000000000000000e+00  -1.1154872473294912e-09 1.5927973151202084e-09 0.0000000000000000e+00  -6.9953677983722541e-10 1.7187144958194351e-09 0.0000000000000000e+00  -2.6371911864417679e-10 1.6060152423482056e-09 0.0000000000000000e+00  1.6557647466242077e-13 1.6323820668933086e-12 0.0000000000000000e+00  1.5166840192478957e-13 -9.6701710222786093e-13 0.0000000000000000e+00  -2.2920173328424333e-10 -1.2190812261825311e-09 0.0000000000000000e+00  -6.1022980145732402e-10 -1.3090214993239068e-09 0.0000000000000000e+00  -9.7877577505172309e-10 -1.2218073384751826e-09 0.0000000000000000e+00  -1.3093071902887696e-09 -1.0906753638795499e-09 0.0000000000000000e+00  -1.5922330429940972e-09 -9.3265606211195525e-10 0.0000000000000000e+00  -1.8231718811444657e-09 -7.5742526332959968e-10 0.0000000000000000e+00  -2.0009315330102621e-09 -5.7247965856764082e-10 0.0000000000000000e+00  -2.1262765141058476e-09 -3.8295080019885050e-10 0.0000000000000000e+00  -2.2006473155448758e-09 -1.9175781236839850e-10 0.0000000000000000e+00  -2.2252693006488379e-09 -1.7043060563488798e-13 0.0000000000000000e+00  -2.2006086301660207e-09 1.9140453588591560e-10 0.0000000000000000e+00  -2.1262004947346882e-09 3.8255743172039857e-10 0.0000000000000000e+00  -2.0008258984320609e-09 5.7201154233743230e-10 0.0000000000000000e+00  -1.8230565056222501e-09 7.5684676452525271e-10 0.0000000000000000e+00  -1.5921596277318145e-09 9.3195064827179685e-10 0.0000000000000000e+00  -1.3093221779191463e-09 1.0898836590300872e-09 0.0000000000000000e+00  -9.7895732969649585e-10 1.2211754699205249e-09 0.0000000000000000e+00  -6.1051839273677694e-10 1.3108862639643521e-09 0.0000000000000000e+00  -2.2930636360854239e-10 1.2212148236883040e-09 0.0000000000000000e+00  1.4750834960100862e-13 1.2452006857515486e-12 0.0000000000000000e+00  1.3733137085090682e-13 -6.6995427605211016e-13 0.0000000000000000e+00  -2.0526723608106087e-10 -8.7926433578146699e-10 0.0000000000000000e+00  -5.4789020622905343e-10 -9.4602804825584159e-10 0.0000000000000000e+00  -8.8201152334594887e-10 -8.8632538338539783e-10 0.0000000000000000e+00  -1.1854147322058797e-09 -7.9492042329056552e-10 0.0000000000000000e+00  -1.4490884308676755e-09 -6.8329527125528249e-10 0.0000000000000000e+00  -1.6677870317273234e-09 -5.5777044105272694e-10 0.0000000000000000e+00  -1.8387000091227368e-09 -4.2350017109914495e-10 0.0000000000000000e+00  -1.9607684013272551e-09 -2.8431064054616935e-10 0.0000000000000000e+00  -2.0338656223007103e-09 -1.4271235713192458e-10 0.0000000000000000e+00  -2.0581854183898340e-09 -1.9212919946858372e-13 0.0000000000000000e+00  -2.0338380234730617e-09 1.4231665497682449e-10 0.0000000000000000e+00  -1.9607168048610696e-09 2.8388094916899362e-10 0.0000000000000000e+00  -1.8386344198800521e-09 4.2301512921815289e-10 0.0000000000000000e+00  -1.6677252231207277e-09 5.5721309702597017e-10 0.0000000000000000e+00  -1.4490672450406022e-09 6.8266538253503176e-10 0.0000000000000000e+00  -1.1854624816858318e-09 7.9426567753469838e-10 0.0000000000000000e+00  -8.8216926454024267e-10 8.8586123497472384e-10 0.0000000000000000e+00  -5.4811561518838115e-10 9.4781202801340954e-10 0.0000000000000000e+00  -2.0534871381463287e-10 8.8121508283046966e-10 0.0000000000000000e+00  1.3470548911583670e-13 9.1475290961287408e-13 0.0000000000000000e+00  1.2773936723443690e-13 -3.9991942511905216e-13 0.0000000000000000e+00  -1.8946427056037170e-10 -5.7004370456224960e-10 0.0000000000000000e+00  -5.0654336104754656e-10 -6.1412722113911171e-10 0.0000000000000000e+00  -8.1733956450905705e-10 -5.7694626605322722e-10 0.0000000000000000e+00  -1.1017776616372001e-09 -5.1902020224067893e-10 0.0000000000000000e+00  -1.3513492100313174e-09 -4.4764276176660876e-10 0.000000000000