<?xml version="1.0"?>
<VTKFile type="UnstructuredGrid"  version="0.1"  >
<UnstructuredGrid>
<Piece  NumberOfPoints="651" NumberOfCells="1200">
<Points>
<DataArray  type="Float64"  NumberOfComponents="3"  format="ascii">0 0 0  50000 0 0  100000 0 0  150000 0 0  200000 0 0  250000 0 0  300000 0 0  350000 0 0  400000 0 0  450000 0 0  500000 0 0  550000 0 0  600000 0 0  650000 0 0  700000 0 0  750000 0 0  800000 0 0  850000 0 0  900000 0 0  950000 0 0  1000000 0 0  0 50000 0  50000 50000 0  100000 50000 0  150000 50000 0  200000 50000 0  250000 50000 0  300000 50000 0  350000 50000 0  400000 50000 0  450000 50000 0  500000 50000 0  550000 50000 0  600000 50000 0  650000 50000 0  700000 50000 0  750000 50000 0  800000 50000 0  850000 50000 0  900000 50000 0  950000 50000 0  1000000 50000 0  0 100000 0  50000 100000 0  100000 100000 0  150000 100000 0  200000 100000 0  250000 100000 0  300000 100000 0  350000 100000 0  400000 100000 0  450000 100000 0  500000 100000 0  550000 100000 0  600000 100000 0  650000 100000 0  700000 100000 0  750000 100000 0  800000 100000 0  850000 100000 0  900000 100000 0  950000 100000 0  1000000 100000 0  0 150000 0  50000 150000 0  100000 150000 0  150000 150000 0  200000 150000 0  250000 150000 0  300000 150000 0  350000 150000 0  400000 150000 0  450000 150000 0  500000 150000 0  550000 150000 0  600000 150000 0  650000 150000 0  700000 150000 0  750000 150000 0  800000 150000 0  850000 150000 0  900000 150000 0  950000 150000 0  1000000 150000 0  0 200000 0  50000 200000 0  100000 200000 0  150000 200000 0  200000 200000 0  250000 200000 0  300000 200000 0  350000 200000 0  400000 200000 0  450000 200000 0  500000 200000 0  550000 200000 0  600000 200000 0  650000 200000 0  700000 200000 0  750000 200000 0  800000 200000 0  850000 200000 0  900000 200000 0  950000 200000 0  1000000 200000 0  0 250000 0  50000 250000 0  100000 250000 0  150000 250000 0  200000 250000 0  250000 250000 0  300000 250000 0  350000 250000 0  400000 250000 0  450000 250000 0  500000 250000 0  550000 250000 0  600000 250000 0  650000 250000 0  700000 250000 0  750000 250000 0  800000 250000 0  850000 250000 0  900000 250000 0  950000 250000 0  1000000 250000 0  0 300000 0  50000 300000 0  100000 300000 0  150000 300000 0  200000 300000 0  250000 300000 0  300000 300000 0  350000 300000 0  400000 300000 0  450000 300000 0  500000 300000 0  550000 300000 0  600000 300000 0  650000 300000 0  700000 300000 0  750000 300000 0  800000 300000 0  850000 300000 0  900000 300000 0  950000 300000 0  1000000 300000 0  0 350000 0  50000 350000 0  100000 350000 0  150000 350000 0  200000 350000 0  250000 350000 0  300000 350000 0  350000 350000 0  400000 350000 0  450000 350000 0  500000 350000 0  550000 350000 0  600000 350000 0  650000 350000 0  700000 350000 0  750000 350000 0  800000 350000 0  850000 350000 0  900000 350000 0  950000 350000 0  1000000 350000 0  0 400000 0  50000 400000 0  100000 400000 0  150000 400000 0  200000 400000 0  250000 400000 0  300000 400000 0  350000 400000 0  400000 400000 0  450000 400000 0  500000 400000 0  550000 400000 0  600000 400000 0  650000 400000 0  700000 400000 0  750000 400000 0  800000 400000 0  850000 400000 0  900000 400000 0  950000 400000 0  1000000 400000 0  0 450000 0  50000 450000 0  100000 450000 0  150000 450000 0  200000 450000 0  250000 450000 0  300000 450000 0  350000 450000 0  400000 450000 0  450000 450000 0  500000 450000 0  550000 450000 0  600000 450000 0  650000 450000 0  700000 450000 0  750000 450000 0  800000 450000 0  850000 450000 0  900000 450000 0  950000 450000 0  1000000 450000 0  0 500000 0  50000 500000 0  100000 500000 0  150000 500000 0  200000 500000 0  250000 500000 0  300000 500000 0  350000 500000 0  400000 500000 0  450000 500000 0  500000 500000 0  550000 500000 0  600000 500000 0  650000 500000 0  700000 500000 0  750000 500000 0  800000 500000 0  850000 500000 0  900000 500000 0  950000 500000 0  1000000 500000 0  0 550000 0  50000 550000 0  100000 550000 0  150000 550000 0  200000 550000 0  250000 550000 0  300000 550000 0  350000 550000 0  400000 550000 0  450000 550000 0  500000 550000 0  550000 550000 0  600000 550000 0  650000 550000 0  700000 550000 0  750000 550000 0  800000 550000 0  850000 550000 0  900000 550000 0  950000 550000 0  1000000 550000 0  0 600000 0  50000 600000 0  100000 600000 0  150000 600000 0  200000 600000 0  250000 600000 0  300000 600000 0  350000 600000 0  400000 600000 0  450000 600000 0  500000 600000 0  550000 600000 0  600000 600000 0  650000 600000 0  700000 600000 0  750000 600000 0  800000 600000 0  850000 600000 0  900000 600000 0  950000 600000 0  1000000 600000 0  0 650000 0  50000 650000 0  100000 650000 0  150000 650000 0  200000 650000 0  250000 650000 0  300000 650000 0  350000 650000 0  400000 650000 0  450000 650000 0  500000 650000 0  550000 650000 0  600000 650000 0  650000 650000 0  700000 650000 0  750000 650000 0  800000 650000 0  850000 650000 0  900000 650000 0  950000 650000 0  1000000 650000 0  0 700000 0  50000 700000 0  100000 700000 0  150000 700000 0  200000 700000 0  250000 700000 0  300000 700000 0  350000 700000 0  400000 700000 0  450000 700000 0  500000 700000 0  550000 700000 0  600000 700000 0  650000 700000 0  700000 700000 0  750000 700000 0  800000 700000 0  850000 700000 0  900000 700000 0  950000 700000 0  1000000 700000 0  0 750000 0  50000 750000 0  100000 750000 0  150000 750000 0  200000 750000 0  250000 750000 0  300000 750000 0  350000 750000 0  400000 750000 0  450000 750000 0  500000 750000 0  550000 750000 0  600000 750000 0  650000 750000 0  700000 750000 0  750000 750000 0  800000 750000 0  850000 750000 0  900000 750000 0  950000 750000 0  1000000 750000 0  0 800000 0  50000 800000 0  100000 800000 0  150000 800000 0  200000 800000 0  250000 800000 0  300000 800000 0  350000 800000 0  400000 800000 0  450000 800000 0  500000 800000 0  550000 800000 0  600000 800000 0  650000 800000 0  700000 800000 0  750000 800000 0  800000 800000 0  850000 800000 0  900000 800000 0  950000 800000 0  1000000 800000 0  0 850000 0  50000 850000 0  100000 850000 0  150000 850000 0  200000 850000 0  250000 850000 0  300000 850000 0  350000 850000 0  400000 850000 0  450000 850000 0  500000 850000 0  550000 850000 0  600000 850000 0  650000 850000 0  700000 850000 0  750000 850000 0  800000 850000 0  850000 850000 0  900000 850000 0  950000 850000 0  1000000 850000 0  0 900000 0  50000 900000 0  100000 900000 0  150000 900000 0  200000 900000 0  250000 900000 0  300000 900000 0  350000 900000 0  400000 900000 0  450000 900000 0  500000 900000 0  550000 900000 0  600000 900000 0  650000 900000 0  700000 900000 0  750000 900000 0  800000 900000 0  850000 900000 0  900000 900000 0  950000 900000 0  1000000 900000 0  0 950000 0  50000 950000 0  100000 950000 0  150000 950000 0  200000 950000 0  250000 950000 0  300000 950000 0  350000 950000 0  400000 950000 0  450000 950000 0  500000 950000 0  550000 950000 0  600000 950000 0  650000 950000 0  700000 950000 0  750000 950000 0  800000 950000 0  850000 950000 0  900000 950000 0  950000 950000 0  1000000 950000 0  0 1000000 0  50000 1000000 0  100000 1000000 0  150000 1000000 0  200000 1000000 0  250000 1000000 0  300000 1000000 0  350000 1000000 0  400000 1000000 0  450000 1000000 0  500000 1000000 0  550000 1000000 0  600000 1000000 0  650000 1000000 0  700000 1000000 0  750000 1000000 0  800000 1000000 0  850000 1000000 0  900000 1000000 0  950000 1000000 0  1000000 1000000 0  0 1050000 0  50000 1050000 0  100000 1050000 0  150000 1050000 0  200000 1050000 0  250000 1050000 0  300000 1050000 0  350000 1050000 0  400000 1050000 0  450000 1050000 0  500000 1050000 0  550000 1050000 0  600000 1050000 0  650000 1050000 0  700000 1050000 0  750000 1050000 0  800000 1050000 0  850000 1050000 0  900000 1050000 0  950000 1050000 0  1000000 1050000 0  0 1100000 0  50000 1100000 0  100000 1100000 0  150000 1100000 0  200000 1100000 0  250000 1100000 0  300000 1100000 0  350000 1100000 0  400000 1100000 0  450000 1100000 0  500000 1100000 0  550000 1100000 0  600000 1100000 0  650000 1100000 0  700000 1100000 0  750000 1100000 0  800000 1100000 0  850000 1100000 0  900000 1100000 0  950000 1100000 0  1000000 1100000 0  0 1150000 0  50000 1150000 0  100000 1150000 0  150000 1150000 0  200000 1150000 0  250000 1150000 0  300000 1150000 0  350000 1150000 0  400000 1150000 0  450000 1150000 0  500000 1150000 0  550000 1150000 0  600000 1150000 0  650000 1150000 0  700000 1150000 0  750000 1150000 0  800000 1150000 0  850000 1150000 0  900000 1150000 0  950000 1150000 0  1000000 1150000 0  0 1200000 0  50000 1200000 0  100000 1200000 0  150000 1200000 0  200000 1200000 0  250000 1200000 0  300000 1200000 0  350000 1200000 0  400000 1200000 0  450000 1200000 0  500000 1200000 0  550000 1200000 0  600000 1200000 0  650000 1200000 0  700000 1200000 0  750000 1200000 0  800000 1200000 0  850000 1200000 0  900000 1200000 0  950000 1200000 0  1000000 1200000 0  0 1250000 0  50000 1250000 0  100000 1250000 0  150000 1250000 0  200000 1250000 0  250000 1250000 0  300000 1250000 0  350000 1250000 0  400000 1250000 0  450000 1250000 0  500000 1250000 0  550000 1250000 0  600000 1250000 0  650000 1250000 0  700000 1250000 0  750000 1250000 0  800000 1250000 0  850000 1250000 0  900000 1250000 0  950000 1250000 0  1000000 1250000 0  0 1300000 0  50000 1300000 0  100000 1300000 0  150000 1300000 0  200000 1300000 0  250000 1300000 0  300000 1300000 0  350000 1300000 0  400000 1300000 0  450000 1300000 0  500000 1300000 0  550000 1300000 0  600000 1300000 0  650000 1300000 0  700000 1300000 0  750000 1300000 0  800000 1300000 0  850000 1300000 0  900000 1300000 0  950000 1300000 0  1000000 1300000 0  0 1350000 0  50000 1350000 0  100000 1350000 0  150000 1350000 0  200000 1350000 0  250000 1350000 0  300000 1350000 0  350000 1350000 0  400000 1350000 0  450000 1350000 0  500000 1350000 0  550000 1350000 0  600000 1350000 0  650000 1350000 0  700000 135
[...]
<PointData  Vectors="f_25021"> 
<DataArray  type="Float64"  Name="f_25021"  NumberOfComponents="3" format="ascii">-1.0480740863657333e-10 -6.8786928529894718e-11 0.0000000000000000e+00  7.9927321133107348e-08 -6.0895137863312232e-11 0.0000000000000000e+00  7.9993277990964087e-08 7.9294105097631238e-13 0.0000000000000000e+00  7.9983821835914206e-08 9.4988635581424507e-13 0.0000000000000000e+00  7.9991143557889788e-08 7.7955593334934533e-14 0.0000000000000000e+00  7.9992626030624119e-08 3.4611941279555542e-13 0.0000000000000000e+00  7.9993661058550182e-08 1.7538739786632677e-13 0.0000000000000000e+00  7.9994312229765775e-08 1.2138942943350267e-13 0.0000000000000000e+00  7.9994668966869153e-08 7.7992983575786082e-14 0.0000000000000000e+00  7.9994841419007309e-08 4.3531324152825594e-14 0.0000000000000000e+00  7.9994853181968848e-08 1.5607385891187871e-14 0.0000000000000000e+00  7.9994706345644647e-08 -8.6569953635668497e-15 0.0000000000000000e+00  7.9994374613784229e-08 -3.3514552670962388e-14 0.0000000000000000e+00  7.9993806964274846e-08 -6.1413222113333539e-14 0.0000000000000000e+00  7.9992764590826668e-08 4.3234135989586807e-15 0.0000000000000000e+00  7.9991307859896221e-08 -3.6402154274140277e-13 0.0000000000000000e+00  7.9988395237253457e-08 1.0781936553976422e-12 0.0000000000000000e+00  7.9973105651052480e-08 5.4557913520375430e-12 0.0000000000000000e+00  7.9993519435690452e-08 -3.0803973658506600e-11 0.0000000000000000e+00  7.9562235111858854e-08 3.9693769723034642e-10 0.0000000000000000e+00  -5.7289164659103617e-10 5.0634451200320744e-10 0.0000000000000000e+00  -8.2255916068104459e-11 -6.4532402015088187e-11 0.0000000000000000e+00  -1.2967054970790863e-08 -1.6518332222285062e-08 0.0000000000000000e+00  -1.0812629124070552e-09 -5.1342479629286496e-09 0.0000000000000000e+00  5.2572149918453173e-10 -2.3997188753652198e-09 0.0000000000000000e+00  3.5031226294329074e-09 -1.2171091564420994e-09 0.0000000000000000e+00  4.6637008424712521e-09 -6.9802576212180983e-10 0.0000000000000000e+00  5.4563694748921192e-09 -4.4300971262200264e-10 0.0000000000000000e+00  5.9530245142839649e-09 -2.8382479220366958e-10 0.0000000000000000e+00  6.2565938200165199e-09 -1.7626809256609660e-10 0.0000000000000000e+00  6.4228624030187343e-09 -9.3908436144184990e-11 0.0000000000000000e+00  6.4753913746330225e-09 -2.2098452258879415e-11 0.0000000000000000e+00  6.4217519033334517e-09 4.9744150576690664e-11 0.0000000000000000e+00  6.2544887741172213e-09 1.3228141644297874e-10 0.0000000000000000e+00  5.9481727573858165e-09 2.3994928229242775e-10 0.0000000000000000e+00  5.4547616978876645e-09 3.9850233962438328e-10 0.0000000000000000e+00  4.6672626604658918e-09 6.6022729720174505e-10 0.0000000000000000e+00  3.3575930481650635e-09 1.1402932775985085e-09 0.0000000000000000e+00  1.4767354773756962e-09 2.3312198486217944e-09 0.0000000000000000e+00  -4.3393112946212812e-09 5.2839589934635995e-09 0.0000000000000000e+00  -9.1437761660172454e-09 1.5647607389626205e-08 0.0000000000000000e+00  -4.2141540784834591e-10 4.0664001932943165e-10 0.0000000000000000e+00  -8.2728238628656095e-12 -1.2109083005312389e-11 0.0000000000000000e+00  -6.2439864436353822e-09 -1.2114400838437654e-08 0.0000000000000000e+00  -8.2719598658487615e-09 -8.1692731575476166e-09 0.0000000000000000e+00  -7.8147516567808696e-09 -4.6022257623209558e-09 0.0000000000000000e+00  -6.3454574554149941e-09 -2.5466419579220022e-09 0.0000000000000000e+00  -5.6148448015741093e-09 -1.5694822089368071e-09 0.0000000000000000e+00  -4.9428537882528149e-09 -9.9293799719857984e-10 0.0000000000000000e+00  -4.5244412144450068e-09 -6.2376069909695011e-10 0.0000000000000000e+00  -4.2510667969126113e-09 -3.6538477469529484e-10 0.0000000000000000e+00  -4.0984911143364395e-09 -1.6305941818412300e-10 0.0000000000000000e+00  -4.0495803057675996e-09 1.4904068900755214e-11 0.0000000000000000e+00  -4.0986242665934244e-09 1.9286857663850142e-10 0.0000000000000000e+00  -4.2509944902858293e-09 3.9511567290001015e-10 0.0000000000000000e+00  -4.5233629892455917e-09 6.5360465700282228e-10 0.0000000000000000e+00  -4.9475562819927982e-09 1.0202012128463784e-09 0.0000000000000000e+00  -5.5752987738241330e-09 1.5922277119030377e-09 0.0000000000000000e+00  -6.4418161009953175e-09 2.5778373640070565e-09 0.0000000000000000e+00  -7.7087178363288981e-09 4.4461087168186883e-09 0.0000000000000000e+00  -8.4135929239213761e-09 8.2010540267224047e-09 0.0000000000000000e+00  -5.2462206841811389e-09 1.4890711891277898e-08 0.0000000000000000e+00  1.2047932307101192e-11 1.8583620862306879e-12 0.0000000000000000e+00  7.8525075412094933e-13 -1.3414984629385039e-11 0.0000000000000000e+00  -2.6121113377257742e-09 -9.2551229040349708e-09 0.0000000000000000e+00  -5.1123174243227661e-09 -7.3545497367923889e-09 0.0000000000000000e+00  -5.6135459619723374e-09 -4.8146548176402010e-09 0.0000000000000000e+00  -5.5275811574338039e-09 -3.2069251540693865e-09 0.0000000000000000e+00  -5.2183808327697656e-09 -2.1389355123235091e-09 0.0000000000000000e+00  -4.8572414129618326e-09 -1.4177615852936204e-09 0.0000000000000000e+00  -4.6013139756119240e-09 -9.2550095303186081e-10 0.0000000000000000e+00  -4.4130121096743770e-09 -5.6007494226649514e-10 0.0000000000000000e+00  -4.3043751095507759e-09 -2.6495470385913256e-10 0.0000000000000000e+00  -4.2684379844481388e-09 -1.2960823326168564e-12 0.0000000000000000e+00  -4.3037014418860820e-09 2.6235237563030073e-10 0.0000000000000000e+00  -4.4117740852510132e-09 5.5725134862588108e-10 0.0000000000000000e+00  -4.5967584482824857e-09 9.2232890477673252e-10 0.0000000000000000e+00  -4.8618609217384656e-09 1.4147106894767805e-09 0.0000000000000000e+00  -5.1955342515054516e-09 2.1269675331615026e-09 0.0000000000000000e+00  -5.5487103617620063e-09 3.2132596779688464e-09 0.0000000000000000e+00  -5.6741094929864557e-09 4.8976989312130841e-09 0.0000000000000000e+00  -4.9387980502315524e-09 7.3948677302110764e-09 0.0000000000000000e+00  -2.5835574171440032e-09 8.6725231529801700e-09 0.0000000000000000e+00  -1.5688285580203310e-12 2.2991909762931701e-11 0.0000000000000000e+00  2.5641396238986137e-13 -8.2707297832287440e-12 0.0000000000000000e+00  -1.4010435730378838e-09 -6.3835716179415138e-09 0.0000000000000000e+00  -3.0778803707114472e-09 -5.7850027721771244e-09 0.0000000000000000e+00  -3.9781838204916245e-09 -4.4970848470591052e-09 0.0000000000000000e+00  -4.3449107221172047e-09 -3.2855723465613434e-09 0.0000000000000000e+00  -4.3572693978429301e-09 -2.3231584728784699e-09 0.0000000000000000e+00  -4.2746810311908388e-09 -1.6185507796138373e-09 0.0000000000000000e+00  -4.1683694130652325e-09 -1.0884864802002105e-09 0.0000000000000000e+00  -4.0742017318938051e-09 -6.7007905335298461e-10 0.0000000000000000e+00  -4.0151905430988638e-09 -3.1935609060810263e-10 0.0000000000000000e+00  -3.9946120977609585e-09 2.0911451516122260e-13 0.0000000000000000e+00  -4.0145875954896504e-09 3.1972753998679111e-10 0.0000000000000000e+00  -4.0735909044441760e-09 6.7027809558681927e-10 0.0000000000000000e+00  -4.1657147185441402e-09 1.0879075651216671e-09 0.0000000000000000e+00  -4.2747202781600318e-09 1.6188541017420495e-09 0.0000000000000000e+00  -4.3612592354099833e-09 2.3237480331037000e-09 0.0000000000000000e+00  -4.3310346082169486e-09 3.2721933811688213e-09 0.0000000000000000e+00  -3.9939165615137535e-09 4.5082765333757817e-09 0.0000000000000000e+00  -3.0577396311069335e-09 5.8419973756827481e-09 0.0000000000000000e+00  -1.3603782691519539e-09 6.4213297005233738e-09 0.0000000000000000e+00  -1.7214356573100296e-12 1.1597137698428272e-11 0.0000000000000000e+00  3.6981982012272100e-13 -5.9125078776215565e-12 0.0000000000000000e+00  -8.6971118507936466e-10 -4.8358497239377205e-09 0.0000000000000000e+00  -2.0721960597690493e-09 -4.6938530374983727e-09 0.0000000000000000e+00  -2.9157938829190176e-09 -3.8833144207947400e-09 0.0000000000000000e+00  -3.3873720911501736e-09 -3.0182937193752060e-09 0.0000000000000000e+00  -3.6076572512111656e-09 -2.2699065058083425e-09 0.0000000000000000e+00  -3.6914553510695397e-09 -1.6508005809157140e-09 0.0000000000000000e+00  -3.7017596105355634e-09 -1.1412846923760106e-09 0.0000000000000000e+00  -3.6884507503418587e-09 -7.1617089932121186e-10 0.0000000000000000e+00  -3.6734443410346805e-09 -3.4504456253807935e-10 0.0000000000000000e+00  -3.6671319412900369e-09 1.0557635710976714e-13 0.0000000000000000e+00  -3.6730740425280950e-09 3.4520091634111914e-10 0.0000000000000000e+00  -3.6880434056075453e-09 7.1629003891561645e-10 0.0000000000000000e+00  -3.7012723945074119e-09 1.1411918015797514e-09 0.0000000000000000e+00  -3.6898326042797703e-09 1.6501093331011451e-09 0.0000000000000000e+00  -3.6100076142214020e-09 2.2723727203208623e-09 0.0000000000000000e+00  -3.3863901244043278e-09 3.0237570092737574e-09 0.0000000000000000e+00  -2.9080781484546620e-09 3.8699342796094989e-09 0.0000000000000000e+00  -2.0641640621526597e-09 4.6748986980046680e-09 0.0000000000000000e+00  -8.7020698903674122e-10 4.8455332647334558e-09 0.0000000000000000e+00  4.5671658339380965e-13 7.4345076157162441e-12 0.0000000000000000e+00  2.6534789655858713e-13 -4.5192015840342805e-12 0.0000000000000000e+00  -6.0919921953888999e-10 -3.7662413734125329e-09 0.0000000000000000e+00  -1.4981634463823032e-09 -3.7461478857690268e-09 0.0000000000000000e+00  -2.2048186959100520e-09 -3.2446590612182586e-09 0.0000000000000000e+00  -2.6914786704642092e-09 -2.6590827555260520e-09 0.0000000000000000e+00  -2.9939102836663793e-09 -2.0863323475229457e-09 0.0000000000000000e+00  -3.1653098192046713e-09 -1.5664372776924801e-09 0.0000000000000000e+00  -3.2555815283449791e-09 -1.1106021159384328e-09 0.0000000000000000e+00  -3.2999710123278462e-09 -7.0911916574710222e-10 0.0000000000000000e+00  -3.3188330534261204e-09 -3.4505868479900352e-10 0.0000000000000000e+00  -3.3238999876522743e-09 -5.4084333220981457e-14 0.0000000000000000e+00  -3.3186734113209286e-09 3.4491613024986842e-10 0.0000000000000000e+00  -3.2996334737302364e-09 7.0891563479520534e-10 0.0000000000000000e+00  -3.2554969212405725e-09 1.1105303733709565e-09 0.0000000000000000e+00  -3.1648137783386216e-09 1.5661175387430510e-09 0.0000000000000000e+00  -2.9929302892152564e-09 2.0849281228236630e-09 0.0000000000000000e+00  -2.6909312051161265e-09 2.6585745426329914e-09 0.0000000000000000e+00  -2.2034248202489204e-09 3.2459009082482902e-09 0.0000000000000000e+00  -1.4952025977008095e-09 3.7480191640380154e-09 0.0000000000000000e+00  -6.0942885704443406e-10 3.7677818283443795e-09 0.0000000000000000e+00  9.5857754778522014e-14 5.7095645744226097e-12 0.0000000000000000e+00  2.0771397419431771e-13 -3.4958232705652265e-12 0.0000000000000000e+00  -4.5556349887963639e-10 -2.9772281446677025e-09 0.0000000000000000e+00  -1.1425310017668616e-09 -3.0162488177381684e-09 0.0000000000000000e+00  -1.7323658346798747e-09 -2.6902220002603556e-09 0.0000000000000000e+00  -2.1846965714839975e-09 -2.2739395525745566e-09 0.0000000000000000e+00  -2.5046668181826272e-09 -1.8372293967318074e-09 0.0000000000000000e+00  -2.7183546968581733e-09 -1.4163960220482233e-09 0.0000000000000000e+00  -2.8540138446637025e-09 -1.0252374629144134e-09 0.0000000000000000e+00  -2.9346464631787405e-09 -6.6398467714440893e-10 0.0000000000000000e+00  -2.9766942892979907e-09 -3.2586689221130357e-10 0.0000000000000000e+00  -2.9896916922796297e-09 -1.0459224108199817e-13 0.0000000000000000e+00  -2.9766206783800302e-09 3.2565263918639583e-10 0.0000000000000000e+00  -2.9344561787227857e-09 6.6372150670026824e-10 0.0000000000000000e+00  -2.8537705722557600e-09 1.0249203546946362e-09 0.0000000000000000e+00  -2.7181343236633168e-09 1.4162108971379113e-09 0.0000000000000000e+00  -2.5040854199606287e-09 1.8366626018981981e-09 0.0000000000000000e+00  -2.1836172305675326e-09 2.2716171271297597e-09 0.0000000000000000e+00  -1.7318706159782069e-09 2.6865004981621973e-09 0.0000000000000000e+00  -1.1424750768635850e-09 3.0170457878027482e-09 0.0000000000000000e+00  -4.5620506881176625e-10 2.9830584924579469e-09 0.0000000000000000e+00  1.4546822439859592e-13 4.3020825971440605e-12 0.0000000000000000e+00  1.6963889789562278e-13 -2.7386038032011274e-12 0.0000000000000000e+00  -3.5829356511112843e-10 -2.3691635829088141e-09 0.0000000000000000e+00  -9.0991937859488652e-10 -2.4255742807925469e-09 0.0000000000000000e+00  -1.4053053127254420e-09 -2.2017585486724186e-09 0.0000000000000000e+00  -1.8109853021035014e-09 -1.9017771473606461e-09 0.0000000000000000e+00  -2.1223573911915593e-09 -1.5712192917878787e-09 0.0000000000000000e+00  -2.3492507647613918e-09 -1.2354120642952297e-09 0.0000000000000000e+00  -2.5059606849888231e-09 -9.0836622850876168e-10 0.0000000000000000e+00  -2.6067385975332378e-09 -5.9511909045657980e-10 0.0000000000000000e+00  -2.6626830581038830e-09 -2.9415688520282476e-10 0.0000000000000000e+00  -2.6805536917983724e-09 -1.5513970236748051e-13 0.0000000000000000e+00  -2.6626237983446363e-09 2.9384118352819877e-10 0.0000000000000000e+00  -2.6066258305350770e-09 5.9477978777552034e-10 0.0000000000000000e+00  -2.5057532111104842e-09 9.0792525877150213e-10 0.0000000000000000e+00  -2.3489547775084696e-09 1.2347698037623330e-09 0.0000000000000000e+00  -2.1220461320180412e-09 1.5703757574626791e-09 0.0000000000000000e+00  -1.8106004138872984e-09 1.9005022901417306e-09 0.0000000000000000e+00  -1.4052976841657989e-09 2.1998369226035395e-09 0.0000000000000000e+00  -9.1025280183609901e-10 2.4269268377664192e-09 0.0000000000000000e+00  -3.5905609280107334e-10 2.3735161625946391e-09 0.0000000000000000e+00  1.3201389437679486e-13 3.3547884772828707e-12 0.0000000000000000e+00  1.4167850923302340e-13 -2.1372025873586576e-12 0.0000000000000000e+00  -2.9304621979809990e-10 -1.8785022129208250e-09 0.0000000000000000e+00  -7.5007298939627061e-10 -1.9363769475045385e-09 0.0000000000000000e+00  -1.1725654712271068e-09 -1.7788976094893525e-09 0.0000000000000000e+00  -1.5337240246294849e-09 -1.5596257456510812e-09 0.0000000000000000e+00  -1.8255768550295258e-09 -1.3085506163940938e-09 0.0000000000000000e+00  -2.0499767572683117e-09 -1.0436292051901820e-09 0.0000000000000000e+00  -2.2132268201780317e-09 -7.7665012084526600e-10 0.0000000000000000e+00  -2.3230272968752288e-09 -5.1344332465659862e-10 0.0000000000000000e+00  -2.3859866218812566e-09 -2.5520909782217356e-10 0.0000000000000000e+00  -2.4064541285835046e-09 -1.8860563453614921e-13 0.0000000000000000e+00  -2.3859383377781343e-09 2.5481889364582339e-10 0.0000000000000000e+00  -2.3229339385006013e-09 5.1301679435632418e-10 0.0000000000000000e+00  -2.2130869012505843e-09 7.7615114740862668e-10 0.0000000000000000e+00  -2.0497761531023843e-09 1.0429590312568494e-09 0.0000000000000000e+00  -1.8253877395380028e-09 1.3075809017634442e-09 0.0000000000000000e+00  -1.5336313529898094e-09 1.5583256463621870e-09 0.0000000000000000e+00  -1.1728433762237292e-09 1.7775277894210933e-09 0.0000000000000000e+00  -7.5054166826047792e-10 1.9380389441901358e-09 0.0000000000000000e+00  -2.9366624930128733e-10 1.8823245902672787e-09 0.0000000000000000e+00  1.1606950139544003e-13 2.6273218256386759e-12 0.0000000000000000e+00  1.2198030513557120e-13 -1.6416082616442806e-12 0.0000000000000000e+00  -2.4765189005918158e-10 -1.4692827893413739e-09 0.0000000000000000e+00  -6.3724808731299469e-10 -1.5214966715811475e-09 0.0000000000000000e+00  -1.0043428824437553e-09 -1.4090027524254448e-09 0.0000000000000000e+00  -1.3271057225263748e-09 -1.2478793094536816e-09 0.0000000000000000e+00  -1.5969538336965858e-09 -1.0584410325936984e-09 0.0000000000000000e+00  -1.8119784075070174e-09 -8.5299321685417396e-10 0.0000000000000000e+00  -1.9737899416769426e-09 -6.4047795705582469e-10 0.0000000000000000e+00  -2.0857552344876646e-09 -4.2629644038237202e-10 0.0000000000000000e+00  -2.1512900654582590e-09 -2.1280660067040700e-10 0.0000000000000000e+00  -2.1728332451266539e-09 -2.1618870749257671e-13 0.0000000000000000e+00  -2.1512547075587920e-09 2.1236184184587776e-10 0.0000000000000000e+00  -2.0856843042967395e-09 4.2581029613093206e-10 0.0000000000000000e+00  -1.9736928645388525e-09 6.3991577350263579e-10 0.0000000000000000e+00  -1.8118715844977823e-09 8.5231393034253896e-10 0.0000000000000000e+00  -1.5968966755388237e-09 1.0575965083846258e-09 0.0000000000000000e+00  -1.3271535468977075e-09 1.2468558321120492e-09 0.0000000000000000e+00  -1.0046636046902063e-09 1.4080174952261183e-09 0.0000000000000000e+00  -6.3769236178667659e-10 1.5231537489121824e-09 0.0000000000000000e+00  -2.4815171782132913e-10 1.4726350251132041e-09 0.0000000000000000e+00  1.0520446088545222e-13 2.0464412647896959e-12 0.0000000000000000e+00  1.0769674231687576e-13 -1.2187632145342451e-12 0.0000000000000000e+00  -2.1565858456243336e-10 -1.1175059602832657e-09 0.0000000000000000e+00  -5.5690369997155424e-10 -1.1607958508974143e-09 0.0000000000000000e+00  -8.8253470050341840e-10 -1.0808610223972506e-09 0.0000000000000000e+00  -1.1742683060138977e-09 -9.6392985792858651e-10 0.0000000000000000e+00  -1.4238008956039547e-09 -8.2383392046847191e-10 0.0000000000000000e+00  -1.6274474225220004e-09 -6.6883720423164320e-10 0.0000000000000000e+00  -1.7841915098303328e-09 -5.0544100497617926e-10 0.0000000000000000e+00  -1.8947263954693281e-09 -3.3809720834479048e-10 0.0000000000000000e+00  -1.9603168142785092e-09 -1.6933201770470170e-10 0.0000000000000000e+00  -1.9820359209981733e-09 -2.3726247086388353e-13 0.0000000000000000e+00  -1.9602919675899857e-09 1.6884681570285627e-10 0.0000000000000000e+00  -1.8946796664250609e-09 3.3757807325648984e-10 0.0000000000000000e+00  -1.7841336166122904e-09 5.0486101031073836e-10 0.0000000000000000e+00  -1.6273994638771430e-09 6.6817141722824680e-10 0.0000000000000000e+00  -1.4238140725155818e-09 8.2307451621302437e-10 0.0000000000000000e+00  -1.1743758150224862e-09 9.6310315271989402e-10 0.0000000000000000e+00  -8.8282790382312073e-10 1.0801492977637764e-09 0.0000000000000000e+00  -5.5726906269661255e-10 1.1624074961977683e-09 0.0000000000000000e+00  -2.1604280944163010e-10 1.1204758637951959e-09 0.0000000000000000e+00  9.6232024027974648e-14 1.5652287869377776e-12 0.0000000000000000e+00  9.7443214331064413e-14 -8.4572064634103252e-13 0.0000000000000000e+00  -1.9338012771121269e-10 -8.0625034065578791e-10 0.0000000000000000e+00  -5.0055127541799441e-10 -8.3926815039634955e-10 0.0000000000000000e+00  -7.9612198413954635e-10 -7.8444256239175238e-10 0.0000000000000000e+00  -1.0642258453576838e-09 -7.0285639553761276e-10 0.0000000000000000e+00  -1.2970336414119517e-09 -6.0381531990086005e-10 0.0000000000000000e+00  -1.4900669805576351e-09 -4.9271271088772509e-10 0.0000000000000000e+00  -1.6408885014124451e-09 -3.7402639996495524e-10 0.0000000000000000e+00  -1.7485980462515206e-09 -2.5108453848875129e-10 0.0000000000000000e+00  -1.8130959731491913e-09 -1.2606478353445807e-10 0.0000000000000000e+00  -1.8345571988112416e-09 -2.5149742232256289e-13 0.0000000000000000e+00  -1.8130799403110113e-09 1.2555295617987978e-10 0.0000000000000000e+00  -1.7485701726654888e-09 2.5054656560649966e-10 0.0000000000000000e+00  -1.6408595067294320e-09 3.7344652084091165e-10 0.0000000000000000e+00  -1.4900543982783778e-09 4.9208075573354064e-10 0.0000000000000000e+00  -1.2970734980047800e-09 6.0313770617693394e-10 0.0000000000000000e+00  -1.0643370696809801e-09 7.0216739239264693e-10 0.0000000000000000e+00  -7.9635498284899904e-10 7.8389899320028166e-10 0.0000000000000000e+00  -5.0082590958978789e-10 8.4081856304496898e-10 0.0000000000000000e+00  -1.9365793798359462e-10 8.0894592541481715e-10 0.0000000000000000e+00  8.9795312096310568e-14 1.1521728478960358e-12 0.0000000000000000e+00  9.0347881715448283e-14 -5.0546387319034790e-13 0.0000000000000000e+00  -1.7866814915130638e-10 -5.2273515382514795e-10 0.0000000000000000e+00  -4.6314927706739057e-10 -5.4498815106474371e-10 0.0000000000000000e+00  -7.3832765375289688e-10 -5.1080344831248031e-10 0.0000000000000000e+00  -9.8988851951349455e-10 -4.5906372774838148e-10 0.0000000000000000e+00  -1.2104256876237162e-09 -3.9570037947759039e-10 0.00000000000