<?xml version="1.0"?>
<VTKFile type="UnstructuredGrid"  version="0.1"  >
<UnstructuredGrid>
<Piece  NumberOfPoints="651" NumberOfCells="1200">
<Points>
<DataArray  type="Float64"  NumberOfComponents="3"  format="ascii">0 0 0  50000 0 0  100000 0 0  150000 0 0  200000 0 0  250000 0 0  300000 0 0  350000 0 0  400000 0 0  450000 0 0  500000 0 0  550000 0 0  600000 0 0  650000 0 0  700000 0 0  750000 0 0  800000 0 0  850000 0 0  900000 0 0  950000 0 0  1000000 0 0  0 50000 0  50000 50000 0  100000 50000 0  150000 50000 0  200000 50000 0  250000 50000 0  300000 50000 0  350000 50000 0  400000 50000 0  450000 50000 0  500000 50000 0  550000 50000 0  600000 50000 0  650000 50000 0  700000 50000 0  750000 50000 0  800000 50000 0  850000 50000 0  900000 50000 0  950000 50000 0  1000000 50000 0  0 100000 0  50000 100000 0  100000 100000 0  150000 100000 0  200000 100000 0  250000 100000 0  300000 100000 0  350000 100000 0  400000 100000 0  450000 100000 0  500000 100000 0  550000 100000 0  600000 100000 0  650000 100000 0  700000 100000 0  750000 100000 0  800000 100000 0  850000 100000 0  900000 100000 0  950000 100000 0  1000000 100000 0  0 150000 0  50000 150000 0  100000 150000 0  150000 150000 0  200000 150000 0  250000 150000 0  300000 150000 0  350000 150000 0  400000 150000 0  450000 150000 0  500000 150000 0  550000 150000 0  600000 150000 0  650000 150000 0  700000 150000 0  750000 150000 0  800000 150000 0  850000 150000 0  900000 150000 0  950000 150000 0  1000000 150000 0  0 200000 0  50000 200000 0  100000 200000 0  150000 200000 0  200000 200000 0  250000 200000 0  300000 200000 0  350000 200000 0  400000 200000 0  450000 200000 0  500000 200000 0  550000 200000 0  600000 200000 0  650000 200000 0  700000 200000 0  750000 200000 0  800000 200000 0  850000 200000 0  900000 200000 0  950000 200000 0  1000000 200000 0  0 250000 0  50000 250000 0  100000 250000 0  150000 250000 0  200000 250000 0  250000 250000 0  300000 250000 0  350000 250000 0  400000 250000 0  450000 250000 0  500000 250000 0  550000 250000 0  600000 250000 0  650000 250000 0  700000 250000 0  750000 250000 0  800000 250000 0  850000 250000 0  900000 250000 0  950000 250000 0  1000000 250000 0  0 300000 0  50000 300000 0  100000 300000 0  150000 300000 0  200000 300000 0  250000 300000 0  300000 300000 0  350000 300000 0  400000 300000 0  450000 300000 0  500000 300000 0  550000 300000 0  600000 300000 0  650000 300000 0  700000 300000 0  750000 300000 0  800000 300000 0  850000 300000 0  900000 300000 0  950000 300000 0  1000000 300000 0  0 350000 0  50000 350000 0  100000 350000 0  150000 350000 0  200000 350000 0  250000 350000 0  300000 350000 0  350000 350000 0  400000 350000 0  450000 350000 0  500000 350000 0  550000 350000 0  600000 350000 0  650000 350000 0  700000 350000 0  750000 350000 0  800000 350000 0  850000 350000 0  900000 350000 0  950000 350000 0  1000000 350000 0  0 400000 0  50000 400000 0  100000 400000 0  150000 400000 0  200000 400000 0  250000 400000 0  300000 400000 0  350000 400000 0  400000 400000 0  450000 400000 0  500000 400000 0  550000 400000 0  600000 400000 0  650000 400000 0  700000 400000 0  750000 400000 0  800000 400000 0  850000 400000 0  900000 400000 0  950000 400000 0  1000000 400000 0  0 450000 0  50000 450000 0  100000 450000 0  150000 450000 0  200000 450000 0  250000 450000 0  300000 450000 0  350000 450000 0  400000 450000 0  450000 450000 0  500000 450000 0  550000 450000 0  600000 450000 0  650000 450000 0  700000 450000 0  750000 450000 0  800000 450000 0  850000 450000 0  900000 450000 0  950000 450000 0  1000000 450000 0  0 500000 0  50000 500000 0  100000 500000 0  150000 500000 0  200000 500000 0  250000 500000 0  300000 500000 0  350000 500000 0  400000 500000 0  450000 500000 0  500000 500000 0  550000 500000 0  600000 500000 0  650000 500000 0  700000 500000 0  750000 500000 0  800000 500000 0  850000 500000 0  900000 500000 0  950000 500000 0  1000000 500000 0  0 550000 0  50000 550000 0  100000 550000 0  150000 550000 0  200000 550000 0  250000 550000 0  300000 550000 0  350000 550000 0  400000 550000 0  450000 550000 0  500000 550000 0  550000 550000 0  600000 550000 0  650000 550000 0  700000 550000 0  750000 550000 0  800000 550000 0  850000 550000 0  900000 550000 0  950000 550000 0  1000000 550000 0  0 600000 0  50000 600000 0  100000 600000 0  150000 600000 0  200000 600000 0  250000 600000 0  300000 600000 0  350000 600000 0  400000 600000 0  450000 600000 0  500000 600000 0  550000 600000 0  600000 600000 0  650000 600000 0  700000 600000 0  750000 600000 0  800000 600000 0  850000 600000 0  900000 600000 0  950000 600000 0  1000000 600000 0  0 650000 0  50000 650000 0  100000 650000 0  150000 650000 0  200000 650000 0  250000 650000 0  300000 650000 0  350000 650000 0  400000 650000 0  450000 650000 0  500000 650000 0  550000 650000 0  600000 650000 0  650000 650000 0  700000 650000 0  750000 650000 0  800000 650000 0  850000 650000 0  900000 650000 0  950000 650000 0  1000000 650000 0  0 700000 0  50000 700000 0  100000 700000 0  150000 700000 0  200000 700000 0  250000 700000 0  300000 700000 0  350000 700000 0  400000 700000 0  450000 700000 0  500000 700000 0  550000 700000 0  600000 700000 0  650000 700000 0  700000 700000 0  750000 700000 0  800000 700000 0  850000 700000 0  900000 700000 0  950000 700000 0  1000000 700000 0  0 750000 0  50000 750000 0  100000 750000 0  150000 750000 0  200000 750000 0  250000 750000 0  300000 750000 0  350000 750000 0  400000 750000 0  450000 750000 0  500000 750000 0  550000 750000 0  600000 750000 0  650000 750000 0  700000 750000 0  750000 750000 0  800000 750000 0  850000 750000 0  900000 750000 0  950000 750000 0  1000000 750000 0  0 800000 0  50000 800000 0  100000 800000 0  150000 800000 0  200000 800000 0  250000 800000 0  300000 800000 0  350000 800000 0  400000 800000 0  450000 800000 0  500000 800000 0  550000 800000 0  600000 800000 0  650000 800000 0  700000 800000 0  750000 800000 0  800000 800000 0  850000 800000 0  900000 800000 0  950000 800000 0  1000000 800000 0  0 850000 0  50000 850000 0  100000 850000 0  150000 850000 0  200000 850000 0  250000 850000 0  300000 850000 0  350000 850000 0  400000 850000 0  450000 850000 0  500000 850000 0  550000 850000 0  600000 850000 0  650000 850000 0  700000 850000 0  750000 850000 0  800000 850000 0  850000 850000 0  900000 850000 0  950000 850000 0  1000000 850000 0  0 900000 0  50000 900000 0  100000 900000 0  150000 900000 0  200000 900000 0  250000 900000 0  300000 900000 0  350000 900000 0  400000 900000 0  450000 900000 0  500000 900000 0  550000 900000 0  600000 900000 0  650000 900000 0  700000 900000 0  750000 900000 0  800000 900000 0  850000 900000 0  900000 900000 0  950000 900000 0  1000000 900000 0  0 950000 0  50000 950000 0  100000 950000 0  150000 950000 0  200000 950000 0  250000 950000 0  300000 950000 0  350000 950000 0  400000 950000 0  450000 950000 0  500000 950000 0  550000 950000 0  600000 950000 0  650000 950000 0  700000 950000 0  750000 950000 0  800000 950000 0  850000 950000 0  900000 950000 0  950000 950000 0  1000000 950000 0  0 1000000 0  50000 1000000 0  100000 1000000 0  150000 1000000 0  200000 1000000 0  250000 1000000 0  300000 1000000 0  350000 1000000 0  400000 1000000 0  450000 1000000 0  500000 1000000 0  550000 1000000 0  600000 1000000 0  650000 1000000 0  700000 1000000 0  750000 1000000 0  800000 1000000 0  850000 1000000 0  900000 1000000 0  950000 1000000 0  1000000 1000000 0  0 1050000 0  50000 1050000 0  100000 1050000 0  150000 1050000 0  200000 1050000 0  250000 1050000 0  300000 1050000 0  350000 1050000 0  400000 1050000 0  450000 1050000 0  500000 1050000 0  550000 1050000 0  600000 1050000 0  650000 1050000 0  700000 1050000 0  750000 1050000 0  800000 1050000 0  850000 1050000 0  900000 1050000 0  950000 1050000 0  1000000 1050000 0  0 1100000 0  50000 1100000 0  100000 1100000 0  150000 1100000 0  200000 1100000 0  250000 1100000 0  300000 1100000 0  350000 1100000 0  400000 1100000 0  450000 1100000 0  500000 1100000 0  550000 1100000 0  600000 1100000 0  650000 1100000 0  700000 1100000 0  750000 1100000 0  800000 1100000 0  850000 1100000 0  900000 1100000 0  950000 1100000 0  1000000 1100000 0  0 1150000 0  50000 1150000 0  100000 1150000 0  150000 1150000 0  200000 1150000 0  250000 1150000 0  300000 1150000 0  350000 1150000 0  400000 1150000 0  450000 1150000 0  500000 1150000 0  550000 1150000 0  600000 1150000 0  650000 1150000 0  700000 1150000 0  750000 1150000 0  800000 1150000 0  850000 1150000 0  900000 1150000 0  950000 1150000 0  1000000 1150000 0  0 1200000 0  50000 1200000 0  100000 1200000 0  150000 1200000 0  200000 1200000 0  250000 1200000 0  300000 1200000 0  350000 1200000 0  400000 1200000 0  450000 1200000 0  500000 1200000 0  550000 1200000 0  600000 1200000 0  650000 1200000 0  700000 1200000 0  750000 1200000 0  800000 1200000 0  850000 1200000 0  900000 1200000 0  950000 1200000 0  1000000 1200000 0  0 1250000 0  50000 1250000 0  100000 1250000 0  150000 1250000 0  200000 1250000 0  250000 1250000 0  300000 1250000 0  350000 1250000 0  400000 1250000 0  450000 1250000 0  500000 1250000 0  550000 1250000 0  600000 1250000 0  650000 1250000 0  700000 1250000 0  750000 1250000 0  800000 1250000 0  850000 1250000 0  900000 1250000 0  950000 1250000 0  1000000 1250000 0  0 1300000 0  50000 1300000 0  100000 1300000 0  150000 1300000 0  200000 1300000 0  250000 1300000 0  300000 1300000 0  350000 1300000 0  400000 1300000 0  450000 1300000 0  500000 1300000 0  550000 1300000 0  600000 1300000 0  650000 1300000 0  700000 1300000 0  750000 1300000 0  800000 1300000 0  850000 1300000 0  900000 1300000 0  950000 1300000 0  1000000 1300000 0  0 1350000 0  50000 1350000 0  100000 1350000 0  150000 1350000 0  200000 1350000 0  250000 1350000 0  300000 1350000 0  350000 1350000 0  400000 1350000 0  450000 1350000 0  500000 1350000 0  550000 1350000 0  600000 1350000 0  650000 1350000 0  700000 135
[...]
<PointData  Vectors="f_25021"> 
<DataArray  type="Float64"  Name="f_25021"  NumberOfComponents="3" format="ascii">-1.1970035522925597e-10 -8.4215048180116722e-11 0.0000000000000000e+00  7.9914052083641949e-08 -7.3383647634833644e-11 0.0000000000000000e+00  7.9986065571556746e-08 -2.9500866634836762e-12 0.0000000000000000e+00  7.9976682604330228e-08 -7.0148277569177012e-13 0.0000000000000000e+00  7.9985415701614180e-08 -8.6629469909093530e-13 0.0000000000000000e+00  7.9987760861055357e-08 -1.7560456320879489e-13 0.0000000000000000e+00  7.9989276465690784e-08 -1.3587208738505875e-13 0.0000000000000000e+00  7.9990269949706311e-08 -7.3882905242432100e-14 0.0000000000000000e+00  7.9990828210444028e-08 -2.9107367759225271e-14 0.0000000000000000e+00  7.9991096698022444e-08 5.3911425944753347e-15 0.0000000000000000e+00  7.9991115814365624e-08 4.1583807396140262e-14 0.0000000000000000e+00  7.9990886835134293e-08 8.6107555586469480e-14 0.0000000000000000e+00  7.9990374935396454e-08 1.4442393000749028e-13 0.0000000000000000e+00  7.9989498556511256e-08 2.4289487124513975e-13 0.0000000000000000e+00  7.9987980000425020e-08 4.8285417816671244e-13 0.0000000000000000e+00  7.9985810718978915e-08 4.1138610780953747e-13 0.0000000000000000e+00  7.9981818870226638e-08 2.6088411639751808e-12 0.0000000000000000e+00  7.9964443480486526e-08 8.7588894276953940e-12 0.0000000000000000e+00  7.9987602369057218e-08 -2.6921839294099483e-11 0.0000000000000000e+00  7.9515670126129125e-08 4.4703235471643427e-10 0.0000000000000000e+00  -6.2894797304197866e-10 5.7390496732880888e-10 0.0000000000000000e+00  -9.4730236476833924e-11 -7.7649539650341673e-11 0.0000000000000000e+00  -1.4777739011517404e-08 -1.0981753992519703e-08 0.0000000000000000e+00  -5.9750567363951136e-09 -3.7204600180502123e-09 0.0000000000000000e+00  -5.5790102798115047e-09 -1.6368932946190614e-09 0.0000000000000000e+00  -3.4749391533242905e-09 -9.1676264908251377e-10 0.0000000000000000e+00  -2.6598890393924539e-09 -5.2830163590407912e-10 0.0000000000000000e+00  -2.1121812810110545e-09 -3.3577246086477956e-10 0.0000000000000000e+00  -1.7593209241421299e-09 -2.1509691205067268e-10 0.0000000000000000e+00  -1.5427632817564925e-09 -1.3145258470840478e-10 0.0000000000000000e+00  -1.4242927794416788e-09 -6.6845940310852280e-11 0.0000000000000000e+00  -1.3870209395435033e-09 -1.0183132442195413e-11 0.0000000000000000e+00  -1.4259538486734250e-09 4.6629118937110744e-11 0.0000000000000000e+00  -1.5463602112715610e-09 1.1170791953846608e-10 0.0000000000000000e+00  -1.7653017997554671e-09 1.9608311222948417e-10 0.0000000000000000e+00  -2.1161118537645393e-09 3.1859841910232215e-10 0.0000000000000000e+00  -2.6748010364543312e-09 5.1584431573561993e-10 0.0000000000000000e+00  -3.5759885170930936e-09 8.7670791585275350e-10 0.0000000000000000e+00  -4.7897759773176405e-09 1.6890942705554193e-09 0.0000000000000000e+00  -8.9944136818019361e-09 3.5983357107692742e-09 0.0000000000000000e+00  -1.0713960383147027e-08 1.0531976415497352e-08 0.0000000000000000e+00  -4.6737759552345440e-10 4.5851970715907200e-10 0.0000000000000000e+00  -1.2181244940681962e-11 -1.8673446148195466e-11 0.0000000000000000e+00  -4.1259664053061867e-09 -7.8920659770977908e-09 0.0000000000000000e+00  -5.4339406854896649e-09 -5.6249737235932663e-09 0.0000000000000000e+00  -5.2657754844185421e-09 -3.1640538474064522e-09 0.0000000000000000e+00  -4.2723097855775597e-09 -1.7917002388292058e-09 0.0000000000000000e+00  -3.8020698933481227e-09 -1.1192342116703438e-09 0.0000000000000000e+00  -3.3721182588510054e-09 -7.1755599880738270e-10 0.0000000000000000e+00  -3.0896715949825733e-09 -4.5576818484483958e-10 0.0000000000000000e+00  -2.9076469584033893e-09 -2.7025425647266356e-10 0.0000000000000000e+00  -2.8051453758964530e-09 -1.2400824641743497e-10 0.0000000000000000e+00  -2.7718839759865264e-09 5.2028371658802756e-12 0.0000000000000000e+00  -2.8043538574759576e-09 1.3439173332894889e-10 0.0000000000000000e+00  -2.9057669840590813e-09 2.8054806774198104e-10 0.0000000000000000e+00  -3.0865453332606864e-09 4.6575010487500362e-10 0.0000000000000000e+00  -3.3665157428662877e-09 7.2518173150025016e-10 0.0000000000000000e+00  -3.7740314643150691e-09 1.1232425315461998e-09 0.0000000000000000e+00  -4.3253644613668184e-09 1.7904898473555468e-09 0.0000000000000000e+00  -5.1513194801273036e-09 3.0178932793237533e-09 0.0000000000000000e+00  -5.4898084161691798e-09 5.3874528584451279e-09 0.0000000000000000e+00  -3.5882742792803228e-09 1.0590180314052757e-08 0.0000000000000000e+00  1.1459906632113025e-11 8.4775819075324337e-12 0.0000000000000000e+00  -1.1240141784643218e-12 -1.9765264353578330e-11 0.0000000000000000e+00  -1.8380833611182491e-09 -6.5903838239374105e-09 0.0000000000000000e+00  -3.5405547658009273e-09 -4.9640713068158229e-09 0.0000000000000000e+00  -3.8020987241789764e-09 -3.2682223684014393e-09 0.0000000000000000e+00  -3.7752124536746223e-09 -2.1880623229660120e-09 0.0000000000000000e+00  -3.5797756125171924e-09 -1.4791625074240242e-09 0.0000000000000000e+00  -3.3524207164866175e-09 -9.8763755388789277e-10 0.0000000000000000e+00  -3.1816527410955472e-09 -6.4650047867653703e-10 0.0000000000000000e+00  -3.0595501501994848e-09 -3.9150619365148775e-10 0.0000000000000000e+00  -2.9875205455159931e-09 -1.8400441180724244e-10 0.0000000000000000e+00  -2.9635908931125861e-09 2.1349287271947627e-12 0.0000000000000000e+00  -2.9866841507135015e-09 1.8821225153471434e-10 0.0000000000000000e+00  -3.0576468636370695e-09 3.9547531053253377e-10 0.0000000000000000e+00  -3.1786371131208865e-09 6.5006209213287025e-10 0.0000000000000000e+00  -3.3504258241665368e-09 9.8965514340375654e-10 0.0000000000000000e+00  -3.5641812215602434e-09 1.4739915285010712e-09 0.0000000000000000e+00  -3.7874221771162883e-09 2.2001641519033704e-09 0.0000000000000000e+00  -3.8554685712540395e-09 3.3075317038521290e-09 0.0000000000000000e+00  -3.3868169244585399e-09 4.9696542673071271e-09 0.0000000000000000e+00  -1.8563671124792595e-09 6.1333475735392997e-09 0.0000000000000000e+00  -5.4864571939245689e-12 3.1662090035289097e-11 0.0000000000000000e+00  -8.3919333000883769e-13 -1.2934721174159866e-11 0.0000000000000000e+00  -1.0529708077799997e-09 -4.5784749193289549e-09 0.0000000000000000e+00  -2.1745412520675692e-09 -3.9184141580084686e-09 0.0000000000000000e+00  -2.7582627463117898e-09 -3.0472740843236511e-09 0.0000000000000000e+00  -3.0035427790731984e-09 -2.2450347307387176e-09 0.0000000000000000e+00  -3.0219452219153811e-09 -1.5987857424009435e-09 0.0000000000000000e+00  -2.9704065018230436e-09 -1.1196139488633453e-09 0.0000000000000000e+00  -2.9028459453737891e-09 -7.5591344727980641e-10 0.0000000000000000e+00  -2.8431486043274818e-09 -4.6706453348092548e-10 0.0000000000000000e+00  -2.8045417095853574e-09 -2.2325246710291004e-10 0.0000000000000000e+00  -2.7911079047282579e-09 -4.6109608728776243e-13 0.0000000000000000e+00  -2.8038904124388997e-09 2.2222375830394340e-10 0.0000000000000000e+00  -2.8418223665782504e-09 4.6564965364748815e-10 0.0000000000000000e+00  -2.9006562034060297e-09 7.5376348743733721e-10 0.0000000000000000e+00  -2.9692590670324440e-09 1.1168649154338793e-09 0.0000000000000000e+00  -3.0213714793214020e-09 1.5940340204033300e-09 0.0000000000000000e+00  -2.9958014116431110e-09 2.2301312820784327e-09 0.0000000000000000e+00  -2.7713603126837500e-09 3.0541314447287301e-09 0.0000000000000000e+00  -2.1607461285637638e-09 3.9495891549878589e-09 0.0000000000000000e+00  -1.0535529688804943e-09 4.6362413418382471e-09 0.0000000000000000e+00  -3.0123642463778463e-12 1.7013227338272561e-11 0.0000000000000000e+00  -3.0377723901765172e-13 -9.5575478306697489e-12 0.0000000000000000e+00  -6.7044497585510080e-10 -3.4989961039584509e-09 0.0000000000000000e+00  -1.4837903102043656e-09 -3.2057660610454467e-09 0.0000000000000000e+00  -2.0414516813977403e-09 -2.6463747980295099e-09 0.0000000000000000e+00  -2.3593373903733604e-09 -2.0651235558984842e-09 0.0000000000000000e+00  -2.5087718833984102e-09 -1.5576549235044008e-09 0.0000000000000000e+00  -2.5676170989827554e-09 -1.1362122548436574e-09 0.0000000000000000e+00  -2.5784598918264586e-09 -7.8827364094987785e-10 0.0000000000000000e+00  -2.5717051302069767e-09 -4.9580027876048742e-10 0.0000000000000000e+00  -2.5628130628869585e-09 -2.3933222487538863e-10 0.0000000000000000e+00  -2.5589859789829222e-09 -3.1183254052792719e-13 0.0000000000000000e+00  -2.5624081058075286e-09 2.3862287424344643e-10 0.0000000000000000e+00  -2.5709781263190271e-09 4.9482565652056002e-10 0.0000000000000000e+00  -2.5774472398152212e-09 7.8673188387578757e-10 0.0000000000000000e+00  -2.5665700355971396e-09 1.1341818591061275e-09 0.0000000000000000e+00  -2.5097097588582267e-09 1.5563761834312735e-09 0.0000000000000000e+00  -2.3578890023230372e-09 2.0637321314043381e-09 0.0000000000000000e+00  -2.0398197495679925e-09 2.6347054733080390e-09 0.0000000000000000e+00  -1.4826711137694366e-09 3.1895382033606747e-09 0.0000000000000000e+00  -6.8211506764723817e-10 3.5267982515696192e-09 0.0000000000000000e+00  -5.3524294565857278e-13 1.1889240272360566e-11 0.0000000000000000e+00  -2.0632563654170043e-13 -7.4193206027257934e-12 0.0000000000000000e+00  -4.7584594335547219e-10 -2.7437405619476359e-09 0.0000000000000000e+00  -1.0858473329786274e-09 -2.5771594790980563e-09 0.0000000000000000e+00  -1.5586720683978939e-09 -2.2222199626722533e-09 0.0000000000000000e+00  -1.8858445873515581e-09 -1.8212400674243119e-09 0.0000000000000000e+00  -2.0903599864493330e-09 -1.4310436535735089e-09 0.0000000000000000e+00  -2.2083515030248864e-09 -1.0770910461753342e-09 0.0000000000000000e+00  -2.2715283544344931e-09 -7.6519654688500029e-10 0.0000000000000000e+00  -2.3030721646763433e-09 -4.8931095297322506e-10 0.0000000000000000e+00  -2.3169450489788365e-09 -2.3848309210174538e-10 0.0000000000000000e+00  -2.3207044563592891e-09 -3.8513973788767085e-13 0.0000000000000000e+00  -2.3167317327877573e-09 2.3765005144761102e-10 0.0000000000000000e+00  -2.3027152072149809e-09 4.8830499212690661e-10 0.0000000000000000e+00  -2.2711594761431285e-09 7.6392643703420733e-10 0.0000000000000000e+00  -2.2079209606872730e-09 1.0753606987169861e-09 0.0000000000000000e+00  -2.0902689735337220e-09 1.4288173403723286e-09 0.0000000000000000e+00  -1.8863032668433033e-09 1.8192267602554166e-09 0.0000000000000000e+00  -1.5597099463398389e-09 2.2201091431523167e-09 0.0000000000000000e+00  -1.0856012594807741e-09 2.5730856080113953e-09 0.0000000000000000e+00  -4.8360957493226778e-10 2.7572202280706526e-09 0.0000000000000000e+00  -5.3168132098811614e-13 9.1652515505073845e-12 0.0000000000000000e+00  -1.5080408421737045e-13 -5.8101831478914588e-12 0.0000000000000000e+00  -3.5988770668067896e-10 -2.1778116889809787e-09 0.0000000000000000e+00  -8.3515220110681433e-10 -2.0818572363046568e-09 0.0000000000000000e+00  -1.2332135015618367e-09 -1.8469895505439892e-09 0.0000000000000000e+00  -1.5393894264734678e-09 -1.5610043715211712e-09 0.0000000000000000e+00  -1.7567243127878483e-09 -1.2623011646083234e-09 0.0000000000000000e+00  -1.9026878672884672e-09 -9.7411670309508974e-10 0.0000000000000000e+00  -1.9958914854479213e-09 -7.0580181726704326e-10 0.0000000000000000e+00  -2.0517466429167815e-09 -4.5764418232850545e-10 0.0000000000000000e+00  -2.0810659793120025e-09 -2.2493602721753750e-10 0.0000000000000000e+00  -2.0901282222257127e-09 -4.8082357053946693e-13 0.0000000000000000e+00  -2.0809750491181378e-09 2.2393385882723382e-10 0.0000000000000000e+00  -2.0516005302450658e-09 4.5652850819385760e-10 0.0000000000000000e+00  -1.9957731563660463e-09 7.0452991436343787e-10 0.0000000000000000e+00  -1.9026557447861363e-09 9.7263194407982739e-10 0.0000000000000000e+00  -1.7567979689207647e-09 1.2604030702931908e-09 0.0000000000000000e+00  -1.5397265027150656e-09 1.5585064530596672e-09 0.0000000000000000e+00  -1.2347596999425239e-09 1.8444887633984798e-09 0.0000000000000000e+00  -8.3613713656831999e-10 2.0799459484884875e-09 0.0000000000000000e+00  -3.6514078889206699e-10 2.1909343866352786e-09 0.0000000000000000e+00  -3.1944985417248327e-13 7.0671282062281790e-12 0.0000000000000000e+00  -1.1491537301165616e-13 -4.5874514783025641e-12 0.0000000000000000e+00  -2.8506773812211358e-10 -1.7377522217441185e-09 0.0000000000000000e+00  -6.6918574164446627e-10 -1.6794005882446838e-09 0.0000000000000000e+00  -1.0061170684291234e-09 -1.5166528923585783e-09 0.0000000000000000e+00  -1.2824010661814031e-09 -1.3088855287551359e-09 0.0000000000000000e+00  -1.4944929254691175e-09 -1.0810040045731440e-09 0.0000000000000000e+00  -1.6494452250649089e-09 -8.5012699814035366e-10 0.0000000000000000e+00  -1.7568827065206450e-09 -6.2545464151575867e-10 0.0000000000000000e+00  -1.8262238805021067e-09 -4.1008915585619701e-10 0.0000000000000000e+00  -1.8648078182749025e-09 -2.0295700266491092e-10 0.0000000000000000e+00  -1.8771547813999698e-09 -5.0905776503324201e-13 0.0000000000000000e+00  -1.8647841344709015e-09 2.0191495635907277e-10 0.0000000000000000e+00  -1.8261970535117000e-09 4.0897587170115052e-10 0.0000000000000000e+00  -1.7568942994030104e-09 6.2422557680879849e-10 0.0000000000000000e+00  -1.6495620519128104e-09 8.4874470417585750e-10 0.0000000000000000e+00  -1.4947925540856681e-09 1.0794112121130855e-09 0.0000000000000000e+00  -1.2829429632197274e-09 1.3070211260477353e-09 0.0000000000000000e+00  -1.0075179956698822e-09 1.5148492345666891e-09 0.0000000000000000e+00  -6.7014233932190029e-10 1.6783278907596205e-09 0.0000000000000000e+00  -2.8902341840714517e-10 1.7483147218123303e-09 0.0000000000000000e+00  -2.2506048377847432e-13 5.5685915959170384e-12 0.0000000000000000e+00  -9.3787370907353345e-14 -3.6029860953772866e-12 0.0000000000000000e+00  -2.3444765270164325e-10 -1.3808067617974727e-09 0.0000000000000000e+00  -5.5431004702761119e-10 -1.3439000549030530e-09 0.0000000000000000e+00  -8.4336254285998422e-10 -1.2280888992052353e-09 0.0000000000000000e+00  -1.0904770422156667e-09 -1.0753212319455926e-09 0.0000000000000000e+00  -1.2900092235029573e-09 -9.0156339814440795e-10 0.0000000000000000e+00  -1.4436170909409648e-09 -7.1891911683426517e-10 0.0000000000000000e+00  -1.5555605489787603e-09 -5.3510169979597370e-10 0.0000000000000000e+00  -1.6309745187375039e-09 -3.5391392249733852e-10 0.0000000000000000e+00  -1.6742828194357310e-09 -1.7612220169785649e-10 0.0000000000000000e+00  -1.6883867523701086e-09 -5.1397676527535458e-13 0.0000000000000000e+00  -1.6742932798645109e-09 1.7507962373129722e-10 0.0000000000000000e+00  -1.6310105178595045e-09 3.5282770681385341e-10 0.0000000000000000e+00  -1.5556507033112707e-09 5.3394279951711779e-10 0.0000000000000000e+00  -1.4438079233779954e-09 7.1765879263150241e-10 0.0000000000000000e+00  -1.2903849670648568e-09 9.0018478618784646e-10 0.0000000000000000e+00  -1.0910975327689340e-09 1.0738731554718592e-09 0.0000000000000000e+00  -8.4457802296442554e-10 1.2269044062604986e-09 0.0000000000000000e+00  -5.5508480286944952e-10 1.3433839675014173e-09 0.0000000000000000e+00  -2.3742230861047331e-10 1.3894928551435116e-09 0.0000000000000000e+00  -1.7072890219964601e-13 4.3976312260898242e-12 0.0000000000000000e+00  -7.9726491371304281e-14 -2.7808121290496943e-12 0.0000000000000000e+00  -1.9905309073422308e-10 -1.0816218163330892e-09 0.0000000000000000e+00  -4.7275218523843870e-10 -1.0578649752838187e-09 0.0000000000000000e+00  -7.2507222107708369e-10 -9.7446446973986227e-10 0.0000000000000000e+00  -9.4682754744813910e-10 -8.6181028808223830e-10 0.0000000000000000e+00  -1.1319727027615073e-09 -7.3026791855383046e-10 0.0000000000000000e+00  -1.2795259718367724e-09 -5.8822494186078016e-10 0.0000000000000000e+00  -1.3906298515639050e-09 -4.4162474122638128e-10 0.0000000000000000e+00  -1.4675673076431186e-09 -2.9402406234143903e-10 0.0000000000000000e+00  -1.5126387144826693e-09 -1.4695025609712112e-10 0.0000000000000000e+00  -1.5274758305932366e-09 -5.0580510933006966e-13 0.0000000000000000e+00  -1.5126653177542511e-09 1.4593024892535193e-10 0.0000000000000000e+00  -1.4676318386130340e-09 2.9297960910350013e-10 0.0000000000000000e+00  -1.3907553300571656e-09 4.4054177099046150e-10 0.0000000000000000e+00  -1.2797489301372012e-09 5.8709374341648733e-10 0.0000000000000000e+00  -1.1323537416046380e-09 7.2909402001568265e-10 0.0000000000000000e+00  -9.4740495795520438e-10 8.6066325856682764e-10 0.0000000000000000e+00  -7.2606026386010036e-10 9.7364017682238106e-10 0.0000000000000000e+00  -4.7334818998646322e-10 1.0576351216930826e-09 0.0000000000000000e+00  -2.0128661051213994e-10 1.0890211489399103e-09 0.0000000000000000e+00  -1.3334568944841476e-13 3.4471028564662596e-12 0.0000000000000000e+00  -7.0450071148559105e-14 -2.0721659004260450e-12 0.0000000000000000e+00  -1.7402307432608418e-10 -8.2344175750946070e-10 0.0000000000000000e+00  -4.1444156542054918e-10 -8.0824844740295407e-10 0.0000000000000000e+00  -6.3910852632140286e-10 -7.4857655561975956e-10 0.0000000000000000e+00  -8.4022655741543787e-10 -6.6659941220574639e-10 0.0000000000000000e+00  -1.0119546244134097e-09 -5.6906998157095991e-10 0.0000000000000000e+00  -1.1520396865270848e-09 -4.6169211739646052e-10 0.0000000000000000e+00  -1.2598578394325776e-09 -3.4881236157863426e-10 0.0000000000000000e+00  -1.3359049083325435e-09 -2.3337289812302698e-10 0.0000000000000000e+00  -1.3810477022715130e-09 -1.1703161891557220e-10 0.0000000000000000e+00  -1.3960130057749246e-09 -4.9211390048193493e-13 0.0000000000000000e+00  -1.3810794169657214e-09 1.1604382088720679e-10 0.0000000000000000e+00  -1.3359768817678021e-09 2.3237538354725675e-10 0.0000000000000000e+00  -1.2599878307388954e-09 3.4780239050172839e-10 0.0000000000000000e+00  -1.1522550469216709e-09 4.6067406790358860e-10 0.0000000000000000e+00  -1.0122954392450495e-09 5.6806285370559004e-10 0.0000000000000000e+00  -8.4071068496200743e-10 6.6567134253569095e-10 0.0000000000000000e+00  -6.3986868784447790e-10 7.4797359672951197e-10 0.0000000000000000e+00  -4.1488034178759333e-10 8.0816368883157836e-10 0.0000000000000000e+00  -1.7567446801201433e-10 8.2990576407658378e-10 0.0000000000000000e+00  -1.0809845108139256e-13 2.6490104121125039e-12 0.0000000000000000e+00  -6.4791184957401778e-14 -1.4419798019312048e-12 0.0000000000000000e+00  -1.5657530268293619e-10 -5.9429212607057797e-10 0.0000000000000000e+00  -3.7343349772099680e-10 -5.8506849804602420e-10 0.0000000000000000e+00  -5.7797218939753929e-10 -5.4386073326314859e-10 0.0000000000000000e+00  -7.6329566017239462e-10 -4.8656861724440098e-10 0.0000000000000000e+00  -9.2391637031382437e-10 -4.1750478297076323e-10 0.0000000000000000e+00  -1.0569864548141562e-09 -3.4042692525160361e-10 0.0000000000000000e+00  -1.1609114995472608e-09 -2.5834348854924881e-10 0.0000000000000000e+00  -1.2351156902452260e-09 -1.7346490470903650e-10 0.0000000000000000e+00  -1.2795535190680164e-09 -8.7229640086264486e-11 0.0000000000000000e+00  -1.2943524432842926e-09 -4.7754440877121715e-13 0.0000000000000000e+00  -1.2795829512907733e-09 8.6274626324929971e-11 0.0000000000000000e+00  -1.2351807624309959e-09 1.7251131666791452e-10 0.0000000000000000e+00  -1.1610248199368712e-09 2.5739659723808355e-10 0.0000000000000000e+00  -1.0571666044198505e-09 3.3949922277426431e-10 0.0000000000000000e+00  -9.2418821355775477e-10 4.1662061344075990e-10 0.0000000000000000e+00  -7.6366546898236839e-10 4.8578965037439541e-10 0.0000000000000000e+00  -5.7852168726482935e-10 5.4339487969214596e-10 0.0000000000000000e+00  -3.7374022452225880e-10 5.8506012289310334e-10 0.0000000000000000e+00  -1.5774396697420211e-10 6.0009344608216440e-10 0.0000000000000000e+00  -9.0505108148550102e-14 1.9568790290068987e-12 0.0000000000000000e+00  -6.2074588719644231e-14 -8.6369868035413612e-13 0.0000000000000000e+00  -1.4507306789169663e-10 -3.8504961199110774e-10 0.0000000000000000e+00  -3.4616854079863230e-10 -3.8033749315745070e-10 0.0000000000000000e+00  -5.3702402005680248e-10 -3.5441365962276484e-10 0.0000000000000000e+00  -7.1125189165641919e-10 -3.1806142866917191e-10 0.0000000000000000e+00  -8.6369309195479649e-10