<?xml version="1.0"?>
<VTKFile type="UnstructuredGrid"  version="0.1"  >
<UnstructuredGrid>
<Piece  NumberOfPoints="651" NumberOfCells="1200">
<Points>
<DataArray  type="Float64"  NumberOfComponents="3"  format="ascii">0 0 0  50000 0 0  100000 0 0  150000 0 0  200000 0 0  250000 0 0  300000 0 0  350000 0 0  400000 0 0  450000 0 0  500000 0 0  550000 0 0  600000 0 0  650000 0 0  700000 0 0  750000 0 0  800000 0 0  850000 0 0  900000 0 0  950000 0 0  1000000 0 0  0 50000 0  50000 50000 0  100000 50000 0  150000 50000 0  200000 50000 0  250000 50000 0  300000 50000 0  350000 50000 0  400000 50000 0  450000 50000 0  500000 50000 0  550000 50000 0  600000 50000 0  650000 50000 0  700000 50000 0  750000 50000 0  800000 50000 0  850000 50000 0  900000 50000 0  950000 50000 0  1000000 50000 0  0 100000 0  50000 100000 0  100000 100000 0  150000 100000 0  200000 100000 0  250000 100000 0  300000 100000 0  350000 100000 0  400000 100000 0  450000 100000 0  500000 100000 0  550000 100000 0  600000 100000 0  650000 100000 0  700000 100000 0  750000 100000 0  800000 100000 0  850000 100000 0  900000 100000 0  950000 100000 0  1000000 100000 0  0 150000 0  50000 150000 0  100000 150000 0  150000 150000 0  200000 150000 0  250000 150000 0  300000 150000 0  350000 150000 0  400000 150000 0  450000 150000 0  500000 150000 0  550000 150000 0  600000 150000 0  650000 150000 0  700000 150000 0  750000 150000 0  800000 150000 0  850000 150000 0  900000 150000 0  950000 150000 0  1000000 150000 0  0 200000 0  50000 200000 0  100000 200000 0  150000 200000 0  200000 200000 0  250000 200000 0  300000 200000 0  350000 200000 0  400000 200000 0  450000 200000 0  500000 200000 0  550000 200000 0  600000 200000 0  650000 200000 0  700000 200000 0  750000 200000 0  800000 200000 0  850000 200000 0  900000 200000 0  950000 200000 0  1000000 200000 0  0 250000 0  50000 250000 0  100000 250000 0  150000 250000 0  200000 250000 0  250000 250000 0  300000 250000 0  350000 250000 0  400000 250000 0  450000 250000 0  500000 250000 0  550000 250000 0  600000 250000 0  650000 250000 0  700000 250000 0  750000 250000 0  800000 250000 0  850000 250000 0  900000 250000 0  950000 250000 0  1000000 250000 0  0 300000 0  50000 300000 0  100000 300000 0  150000 300000 0  200000 300000 0  250000 300000 0  300000 300000 0  350000 300000 0  400000 300000 0  450000 300000 0  500000 300000 0  550000 300000 0  600000 300000 0  650000 300000 0  700000 300000 0  750000 300000 0  800000 300000 0  850000 300000 0  900000 300000 0  950000 300000 0  1000000 300000 0  0 350000 0  50000 350000 0  100000 350000 0  150000 350000 0  200000 350000 0  250000 350000 0  300000 350000 0  350000 350000 0  400000 350000 0  450000 350000 0  500000 350000 0  550000 350000 0  600000 350000 0  650000 350000 0  700000 350000 0  750000 350000 0  800000 350000 0  850000 350000 0  900000 350000 0  950000 350000 0  1000000 350000 0  0 400000 0  50000 400000 0  100000 400000 0  150000 400000 0  200000 400000 0  250000 400000 0  300000 400000 0  350000 400000 0  400000 400000 0  450000 400000 0  500000 400000 0  550000 400000 0  600000 400000 0  650000 400000 0  700000 400000 0  750000 400000 0  800000 400000 0  850000 400000 0  900000 400000 0  950000 400000 0  1000000 400000 0  0 450000 0  50000 450000 0  100000 450000 0  150000 450000 0  200000 450000 0  250000 450000 0  300000 450000 0  350000 450000 0  400000 450000 0  450000 450000 0  500000 450000 0  550000 450000 0  600000 450000 0  650000 450000 0  700000 450000 0  750000 450000 0  800000 450000 0  850000 450000 0  900000 450000 0  950000 450000 0  1000000 450000 0  0 500000 0  50000 500000 0  100000 500000 0  150000 500000 0  200000 500000 0  250000 500000 0  300000 500000 0  350000 500000 0  400000 500000 0  450000 500000 0  500000 500000 0  550000 500000 0  600000 500000 0  650000 500000 0  700000 500000 0  750000 500000 0  800000 500000 0  850000 500000 0  900000 500000 0  950000 500000 0  1000000 500000 0  0 550000 0  50000 550000 0  100000 550000 0  150000 550000 0  200000 550000 0  250000 550000 0  300000 550000 0  350000 550000 0  400000 550000 0  450000 550000 0  500000 550000 0  550000 550000 0  600000 550000 0  650000 550000 0  700000 550000 0  750000 550000 0  800000 550000 0  850000 550000 0  900000 550000 0  950000 550000 0  1000000 550000 0  0 600000 0  50000 600000 0  100000 600000 0  150000 600000 0  200000 600000 0  250000 600000 0  300000 600000 0  350000 600000 0  400000 600000 0  450000 600000 0  500000 600000 0  550000 600000 0  600000 600000 0  650000 600000 0  700000 600000 0  750000 600000 0  800000 600000 0  850000 600000 0  900000 600000 0  950000 600000 0  1000000 600000 0  0 650000 0  50000 650000 0  100000 650000 0  150000 650000 0  200000 650000 0  250000 650000 0  300000 650000 0  350000 650000 0  400000 650000 0  450000 650000 0  500000 650000 0  550000 650000 0  600000 650000 0  650000 650000 0  700000 650000 0  750000 650000 0  800000 650000 0  850000 650000 0  900000 650000 0  950000 650000 0  1000000 650000 0  0 700000 0  50000 700000 0  100000 700000 0  150000 700000 0  200000 700000 0  250000 700000 0  300000 700000 0  350000 700000 0  400000 700000 0  450000 700000 0  500000 700000 0  550000 700000 0  600000 700000 0  650000 700000 0  700000 700000 0  750000 700000 0  800000 700000 0  850000 700000 0  900000 700000 0  950000 700000 0  1000000 700000 0  0 750000 0  50000 750000 0  100000 750000 0  150000 750000 0  200000 750000 0  250000 750000 0  300000 750000 0  350000 750000 0  400000 750000 0  450000 750000 0  500000 750000 0  550000 750000 0  600000 750000 0  650000 750000 0  700000 750000 0  750000 750000 0  800000 750000 0  850000 750000 0  900000 750000 0  950000 750000 0  1000000 750000 0  0 800000 0  50000 800000 0  100000 800000 0  150000 800000 0  200000 800000 0  250000 800000 0  300000 800000 0  350000 800000 0  400000 800000 0  450000 800000 0  500000 800000 0  550000 800000 0  600000 800000 0  650000 800000 0  700000 800000 0  750000 800000 0  800000 800000 0  850000 800000 0  900000 800000 0  950000 800000 0  1000000 800000 0  0 850000 0  50000 850000 0  100000 850000 0  150000 850000 0  200000 850000 0  250000 850000 0  300000 850000 0  350000 850000 0  400000 850000 0  450000 850000 0  500000 850000 0  550000 850000 0  600000 850000 0  650000 850000 0  700000 850000 0  750000 850000 0  800000 850000 0  850000 850000 0  900000 850000 0  950000 850000 0  1000000 850000 0  0 900000 0  50000 900000 0  100000 900000 0  150000 900000 0  200000 900000 0  250000 900000 0  300000 900000 0  350000 900000 0  400000 900000 0  450000 900000 0  500000 900000 0  550000 900000 0  600000 900000 0  650000 900000 0  700000 900000 0  750000 900000 0  800000 900000 0  850000 900000 0  900000 900000 0  950000 900000 0  1000000 900000 0  0 950000 0  50000 950000 0  100000 950000 0  150000 950000 0  200000 950000 0  250000 950000 0  300000 950000 0  350000 950000 0  400000 950000 0  450000 950000 0  500000 950000 0  550000 950000 0  600000 950000 0  650000 950000 0  700000 950000 0  750000 950000 0  800000 950000 0  850000 950000 0  900000 950000 0  950000 950000 0  1000000 950000 0  0 1000000 0  50000 1000000 0  100000 1000000 0  150000 1000000 0  200000 1000000 0  250000 1000000 0  300000 1000000 0  350000 1000000 0  400000 1000000 0  450000 1000000 0  500000 1000000 0  550000 1000000 0  600000 1000000 0  650000 1000000 0  700000 1000000 0  750000 1000000 0  800000 1000000 0  850000 1000000 0  900000 1000000 0  950000 1000000 0  1000000 1000000 0  0 1050000 0  50000 1050000 0  100000 1050000 0  150000 1050000 0  200000 1050000 0  250000 1050000 0  300000 1050000 0  350000 1050000 0  400000 1050000 0  450000 1050000 0  500000 1050000 0  550000 1050000 0  600000 1050000 0  650000 1050000 0  700000 1050000 0  750000 1050000 0  800000 1050000 0  850000 1050000 0  900000 1050000 0  950000 1050000 0  1000000 1050000 0  0 1100000 0  50000 1100000 0  100000 1100000 0  150000 1100000 0  200000 1100000 0  250000 1100000 0  300000 1100000 0  350000 1100000 0  400000 1100000 0  450000 1100000 0  500000 1100000 0  550000 1100000 0  600000 1100000 0  650000 1100000 0  700000 1100000 0  750000 1100000 0  800000 1100000 0  850000 1100000 0  900000 1100000 0  950000 1100000 0  1000000 1100000 0  0 1150000 0  50000 1150000 0  100000 1150000 0  150000 1150000 0  200000 1150000 0  250000 1150000 0  300000 1150000 0  350000 1150000 0  400000 1150000 0  450000 1150000 0  500000 1150000 0  550000 1150000 0  600000 1150000 0  650000 1150000 0  700000 1150000 0  750000 1150000 0  800000 1150000 0  850000 1150000 0  900000 1150000 0  950000 1150000 0  1000000 1150000 0  0 1200000 0  50000 1200000 0  100000 1200000 0  150000 1200000 0  200000 1200000 0  250000 1200000 0  300000 1200000 0  350000 1200000 0  400000 1200000 0  450000 1200000 0  500000 1200000 0  550000 1200000 0  600000 1200000 0  650000 1200000 0  700000 1200000 0  750000 1200000 0  800000 1200000 0  850000 1200000 0  900000 1200000 0  950000 1200000 0  1000000 1200000 0  0 1250000 0  50000 1250000 0  100000 1250000 0  150000 1250000 0  200000 1250000 0  250000 1250000 0  300000 1250000 0  350000 1250000 0  400000 1250000 0  450000 1250000 0  500000 1250000 0  550000 1250000 0  600000 1250000 0  650000 1250000 0  700000 1250000 0  750000 1250000 0  800000 1250000 0  850000 1250000 0  900000 1250000 0  950000 1250000 0  1000000 1250000 0  0 1300000 0  50000 1300000 0  100000 1300000 0  150000 1300000 0  200000 1300000 0  250000 1300000 0  300000 1300000 0  350000 1300000 0  400000 1300000 0  450000 1300000 0  500000 1300000 0  550000 1300000 0  600000 1300000 0  650000 1300000 0  700000 1300000 0  750000 1300000 0  800000 1300000 0  850000 1300000 0  900000 1300000 0  950000 1300000 0  1000000 1300000 0  0 1350000 0  50000 1350000 0  100000 1350000 0  150000 1350000 0  200000 1350000 0  250000 1350000 0  300000 1350000 0  350000 1350000 0  400000 1350000 0  450000 1350000 0  500000 1350000 0  550000 1350000 0  600000 1350000 0  650000 1350000 0  700000 135
[...]
<PointData  Vectors="f_25021"> 
<DataArray  type="Float64"  Name="f_25021"  NumberOfComponents="3" format="ascii">-1.1780843818416191e-10 -8.2344940803306686e-11 0.0000000000000000e+00  7.9915776175874553e-08 -7.1928193007613307e-11 0.0000000000000000e+00  7.9987122865730861e-08 -2.4354958026537051e-12 0.0000000000000000e+00  7.9977648430970241e-08 -4.8083346332781540e-13 0.0000000000000000e+00  7.9986218691550556e-08 -7.3665120578306097e-13 0.0000000000000000e+00  7.9988437280308784e-08 -9.9578558616819389e-14 0.0000000000000000e+00  7.9989890447631464e-08 -9.0748462702846747e-14 0.0000000000000000e+00  7.9990837209355015e-08 -4.4637326964745195e-14 0.0000000000000000e+00  7.9991367425795415e-08 -1.2598641623259249e-14 0.0000000000000000e+00  7.9991622829027261e-08 1.1802673509609294e-14 0.0000000000000000e+00  7.9991640962515391e-08 3.8657025964242224e-14 0.0000000000000000e+00  7.9991423250326483e-08 7.3274941597236443e-14 0.0000000000000000e+00  7.9990935936351030e-08 1.1958523059921931e-13 0.0000000000000000e+00  7.9990102120257532e-08 1.9927265363372717e-13 0.0000000000000000e+00  7.9988647802869065e-08 4.1721918855169386e-13 0.0000000000000000e+00  7.9986574998563399e-08 3.0388695079621287e-13 0.0000000000000000e+00  7.9982737354104699e-08 2.3937495356769235e-12 0.0000000000000000e+00  7.9965592616252208e-08 8.3604649548521083e-12 0.0000000000000000e+00  7.9988530043536863e-08 -2.7625964740044113e-11 0.0000000000000000e+00  7.9520438290599667e-08 4.4167640496728245e-10 0.0000000000000000e+00  -6.2353378037066243e-10 5.6649568690860012e-10 0.0000000000000000e+00  -9.3191617583748777e-11 -7.6007180363178500e-11 0.0000000000000000e+00  -1.4717661337834490e-08 -1.1728751857790695e-08 0.0000000000000000e+00  -5.5859714516630015e-09 -3.8610107466568171e-09 0.0000000000000000e+00  -5.0746392514571464e-09 -1.7298248863010005e-09 0.0000000000000000e+00  -2.8589594643379075e-09 -9.5667771382309105e-10 0.0000000000000000e+00  -2.0071783071370975e-09 -5.5200773922775463e-10 0.0000000000000000e+00  -1.4298349112752852e-09 -3.5223901458917860e-10 0.0000000000000000e+00  -1.0595082590834366e-09 -2.2682521232168918e-10 0.0000000000000000e+00  -8.3247275265571854e-10 -1.4015889325793785e-10 0.0000000000000000e+00  -7.0819707407293474e-10 -7.3314181296282725e-11 0.0000000000000000e+00  -6.6905506685449148e-10 -1.4729382663637679e-11 0.0000000000000000e+00  -7.0976471961889501e-10 4.3989172437106342e-11 0.0000000000000000e+00  -8.3585823475286691e-10 1.1126333714714981e-10 0.0000000000000000e+00  -1.0653842952656297e-09 1.9854369978161246e-10 0.0000000000000000e+00  -1.4331716560548507e-09 3.2551629516161255e-10 0.0000000000000000e+00  -2.0189668787864626e-09 5.3040067299693402e-10 0.0000000000000000e+00  -2.9700738005462285e-09 9.0489145494586024e-10 0.0000000000000000e+00  -4.2546812052843118e-09 1.7608835144563515e-09 0.0000000000000000e+00  -8.6405684404937393e-09 3.7738498886569092e-09 0.0000000000000000e+00  -1.0695162074298370e-08 1.1189055291248753e-08 0.0000000000000000e+00  -4.6262216474995817e-10 4.5291462680347140e-10 0.0000000000000000e+00  -1.1600043288088058e-11 -1.7692707903402386e-11 0.0000000000000000e+00  -4.3608630710043180e-09 -8.3602426514265396e-09 0.0000000000000000e+00  -5.7048715375921651e-09 -5.9052658274579355e-09 0.0000000000000000e+00  -5.5243896196041901e-09 -3.3166400933803795e-09 0.0000000000000000e+00  -4.4721386122701877e-09 -1.8751508140867046e-09 0.0000000000000000e+00  -3.9809860108252786e-09 -1.1682352972693507e-09 0.0000000000000000e+00  -3.5237610519133566e-09 -7.4699393688016941e-10 0.0000000000000000e+00  -3.2269801411419247e-09 -4.7293799638119298e-10 0.0000000000000000e+00  -3.0352991916718527e-09 -2.7902035205631790e-10 0.0000000000000000e+00  -2.9274039802198352e-09 -1.2625022627776825e-10 0.0000000000000000e+00  -2.8924669246303957e-09 8.6610757310998839e-12 0.0000000000000000e+00  -2.9267393473954299e-09 1.4355381699041438e-10 0.0000000000000000e+00  -3.0336472093281386e-09 2.9624504516911107e-10 0.0000000000000000e+00  -3.2242314300520240e-09 4.8991551683620941e-10 0.0000000000000000e+00  -3.5195863890378546e-09 7.6158680564966599e-10 0.0000000000000000e+00  -3.9506285360228918e-09 1.1793118031803420e-09 0.0000000000000000e+00  -4.5336827595260221e-09 1.8816322098425333e-09 0.0000000000000000e+00  -5.4059673803633205e-09 3.1778674154174335e-09 0.0000000000000000e+00  -5.7825204974193865e-09 5.6913594074286195e-09 0.0000000000000000e+00  -3.7304846003868558e-09 1.1101704179391775e-08 0.0000000000000000e+00  1.1671435045049505e-11 7.4451922445213221e-12 0.0000000000000000e+00  -8.4835744631815202e-13 -1.8883249819164216e-11 0.0000000000000000e+00  -1.9314731261192638e-09 -6.9158409755059275e-09 0.0000000000000000e+00  -3.7274932581470765e-09 -5.2231707923467816e-09 0.0000000000000000e+00  -4.0101704973519043e-09 -3.4340658502171889e-09 0.0000000000000000e+00  -3.9784729675471721e-09 -2.3009284812422111e-09 0.0000000000000000e+00  -3.7724046373518134e-09 -1.5534076508060124e-09 0.0000000000000000e+00  -3.5302284960231642e-09 -1.0362424306145367e-09 0.0000000000000000e+00  -3.3506757750472359e-09 -6.7838018178839433e-10 0.0000000000000000e+00  -3.2216186793541607e-09 -4.1101799024047276e-10 0.0000000000000000e+00  -3.1456399608243423e-09 -1.9360915442210428e-10 0.0000000000000000e+00  -3.1204391316664253e-09 1.3249102443817026e-12 0.0000000000000000e+00  -3.1448408597930847e-09 1.9620141811815632e-10 0.0000000000000000e+00  -3.2197680143069342e-09 4.1337065887749800e-10 0.0000000000000000e+00  -3.3475720293278682e-09 6.8036360935095963e-10 0.0000000000000000e+00  -3.5292387958839519e-09 1.0369511401261309e-09 0.0000000000000000e+00  -3.7554296701851682e-09 1.5463166412210923e-09 0.0000000000000000e+00  -3.9922487345587517e-09 2.3116004082048209e-09 0.0000000000000000e+00  -4.0656340232289412e-09 3.4805321680662897e-09 0.0000000000000000e+00  -3.5691049472619457e-09 5.2312060386294233e-09 0.0000000000000000e+00  -1.9496227525293663e-09 6.4334030343004402e-09 0.0000000000000000e+00  -4.8867367375908832e-12 3.0439340060861036e-11 0.0000000000000000e+00  -6.8321117464138373e-13 -1.2278718125862527e-11 0.0000000000000000e+00  -1.0950792516936838e-09 -4.7966123435581841e-09 0.0000000000000000e+00  -2.2765596773314823e-09 -4.1181546321124307e-09 0.0000000000000000e+00  -2.8946665080626097e-09 -3.2059666266308747e-09 0.0000000000000000e+00  -3.1543712430616497e-09 -2.3595549140421578e-09 0.0000000000000000e+00  -3.1711757504544775e-09 -1.6789666491397582e-09 0.0000000000000000e+00  -3.1167680316115103e-09 -1.1750793160613561e-09 0.0000000000000000e+00  -3.0452696418034248e-09 -7.9309277049089182e-10 0.0000000000000000e+00  -2.9819761872066730e-09 -4.8987410610668274e-10 0.0000000000000000e+00  -2.9411964313951586e-09 -2.3411756433133043e-10 0.0000000000000000e+00  -2.9270243595721376e-09 -4.8850906685612038e-13 0.0000000000000000e+00  -2.9405653487398363e-09 2.3304238595602659e-10 0.0000000000000000e+00  -2.9807138721432756e-09 4.8843166396848418e-10 0.0000000000000000e+00  -3.0430277114464344e-09 7.9092781151539472e-10 0.0000000000000000e+00  -3.1157972052080688e-09 1.1725274338274956e-09 0.0000000000000000e+00  -3.1713771256820776e-09 1.6745780515222065e-09 0.0000000000000000e+00  -3.1449902653441234e-09 2.3444725065201762e-09 0.0000000000000000e+00  -2.9084756543334294e-09 3.2130274497505679e-09 0.0000000000000000e+00  -2.2634159649309182e-09 4.1541496929627164e-09 0.0000000000000000e+00  -1.0915173842418015e-09 4.8539247306256260e-09 0.0000000000000000e+00  -2.8537812449093644e-12 1.6265376869074333e-11 0.0000000000000000e+00  -2.0471912168690659e-13 -9.0485000580226233e-12 0.0000000000000000e+00  -6.9510335527396497e-10 -3.6636893948206921e-09 0.0000000000000000e+00  -1.5513606429454523e-09 -3.3690257179632401e-09 0.0000000000000000e+00  -2.1395397736864605e-09 -2.7822838821017770e-09 0.0000000000000000e+00  -2.4737699328664436e-09 -2.1697060034504982e-09 0.0000000000000000e+00  -2.6310261744582511e-09 -1.6359178641633860e-09 0.0000000000000000e+00  -2.6927268117069279e-09 -1.1930890509085917e-09 0.0000000000000000e+00  -2.7036853495137327e-09 -8.2737468537065859e-10 0.0000000000000000e+00  -2.6963003797206193e-09 -5.2023827100706231e-10 0.0000000000000000e+00  -2.6868084925861048e-09 -2.5104731653620934e-10 0.0000000000000000e+00  -2.6827407215301651e-09 -2.2090092960856219e-13 0.0000000000000000e+00  -2.6864146694139020e-09 2.5052693343945047e-10 0.0000000000000000e+00  -2.6956172960658002e-09 5.1948393849167278e-10 0.0000000000000000e+00  -2.7027137344306725e-09 8.2609153576098207e-10 0.0000000000000000e+00  -2.6916315597538981e-09 1.1912900360143283e-09 0.0000000000000000e+00  -2.6321248166640581e-09 1.6353432788041741e-09 0.0000000000000000e+00  -2.4724483039094487e-09 2.1692674959497394e-09 0.0000000000000000e+00  -2.1371112036772623e-09 2.7700922097513036e-09 0.0000000000000000e+00  -1.5494507570363948e-09 3.3520388581365397e-09 0.0000000000000000e+00  -7.0499989095253081e-10 3.6884901035747206e-09 0.0000000000000000e+00  -3.9018889506261380e-13 1.1263159029509650e-11 0.0000000000000000e+00  -1.3705431689312866e-13 -7.0128079841693907e-12 0.0000000000000000e+00  -4.9271161913709927e-10 -2.8704832938386257e-09 0.0000000000000000e+00  -1.1338819659782819e-09 -2.7053083490271603e-09 0.0000000000000000e+00  -1.6319026942639503e-09 -2.3344803202876063e-09 0.0000000000000000e+00  -1.9762675087611106e-09 -1.9133728100066682e-09 0.0000000000000000e+00  -2.1914338961373347e-09 -1.5032700845694440e-09 0.0000000000000000e+00  -2.3153536959978349e-09 -1.1311071743855266e-09 0.0000000000000000e+00  -2.3815346493216684e-09 -8.0339442224813204e-10 0.0000000000000000e+00  -2.4145522613092692e-09 -5.1364159624596527e-10 0.0000000000000000e+00  -2.4290243244148538e-09 -2.5028672810402158e-10 0.0000000000000000e+00  -2.4329429547655349e-09 -3.3487338945713447e-13 0.0000000000000000e+00  -2.4288163256452761e-09 2.4955869392893572e-10 0.0000000000000000e+00  -2.4142039145709294e-09 5.1276126353369813e-10 0.0000000000000000e+00  -2.3812011489396189e-09 8.0228832635330306e-10 0.0000000000000000e+00  -2.3148838647257974e-09 1.1295731737474505e-09 0.0000000000000000e+00  -2.1912537144551849e-09 1.5011488418095198e-09 0.0000000000000000e+00  -1.9766075785288132e-09 1.9116115767205033e-09 0.0000000000000000e+00  -1.6326136593203617e-09 2.3330100935231680e-09 0.0000000000000000e+00  -1.1332460884322261e-09 2.7021085214941214e-09 0.0000000000000000e+00  -4.9929159890811594e-10 2.8821596203937593e-09 0.0000000000000000e+00  -4.3949692837072418e-13 8.6813908326478325e-12 0.0000000000000000e+00  -9.7505749240417662e-14 -5.4852917768049418e-12 0.0000000000000000e+00  -3.7215440075917288e-10 -2.2772669103990894e-09 0.0000000000000000e+00  -8.7126252654260905e-10 -2.1847217958544620e-09 0.0000000000000000e+00  -1.2902175587661272e-09 -1.9400218495520216e-09 0.0000000000000000e+00  -1.6123099916785715e-09 -1.6396407369598452e-09 0.0000000000000000e+00  -1.8408226280265141e-09 -1.3257234114859830e-09 0.0000000000000000e+00  -1.9942000971016171e-09 -1.0229383923601165e-09 0.0000000000000000e+00  -2.0920878079783904e-09 -7.4108993249952761e-10 0.0000000000000000e+00  -2.1506983874234152e-09 -4.8046123907399980e-10 0.0000000000000000e+00  -2.1814432340164491e-09 -2.3609849873825088e-10 0.0000000000000000e+00  -2.1909450730612837e-09 -4.2889375161722433e-13 0.0000000000000000e+00  -2.1813521052614266e-09 2.3520397052327464e-10 0.0000000000000000e+00  -2.1505463532822993e-09 4.7946144856527856e-10 0.0000000000000000e+00  -2.0919538856486290e-09 7.3995587107535765e-10 0.0000000000000000e+00  -1.9941401576346404e-09 1.0216242880662204e-09 0.0000000000000000e+00  -1.8408003892949977e-09 1.3239857593862235e-09 0.0000000000000000e+00  -1.6124432178724159e-09 1.6371610515455362e-09 0.0000000000000000e+00  -1.2915036048281896e-09 1.9374416783384472e-09 0.0000000000000000e+00  -8.7213511907943972e-10 2.1832527183211877e-09 0.0000000000000000e+00  -3.7667636831225345e-10 2.2893517743458957e-09 0.0000000000000000e+00  -2.5071027722996368e-13 6.6794672845350572e-12 0.0000000000000000e+00  -7.2383689650459881e-14 -4.3279410317238435e-12 0.0000000000000000e+00  -2.9452419598874543e-10 -1.8165927714028255e-09 0.0000000000000000e+00  -6.9765380665559275e-10 -1.7618251531996382e-09 0.0000000000000000e+00  -1.0519704434688000e-09 -1.5924755628729837e-09 0.0000000000000000e+00  -1.3424135813748157e-09 -1.3744160203455391e-09 0.0000000000000000e+00  -1.5653557320399319e-09 -1.1351355831695878e-09 0.0000000000000000e+00  -1.7281985220831385e-09 -8.9267514839278545e-10 0.0000000000000000e+00  -1.8410597075458711e-09 -6.5671363339123200e-10 0.0000000000000000e+00  -1.9138731392484771e-09 -4.3053926172370011e-10 0.0000000000000000e+00  -1.9543770658877489e-09 -2.1303407112646792e-10 0.0000000000000000e+00  -1.9673359905150722e-09 -4.5862191276004754e-13 0.0000000000000000e+00  -1.9543483114198631e-09 2.1209487040388724e-10 0.0000000000000000e+00  -1.9138321271053666e-09 4.2953408810370399e-10 0.0000000000000000e+00  -1.8410411920927736e-09 6.5559545070736235e-10 0.0000000000000000e+00  -1.7282614779748236e-09 8.9140545760225266e-10 0.0000000000000000e+00  -1.5655727362068758e-09 1.1336519457075856e-09 0.0000000000000000e+00  -1.3428166838212750e-09 1.3726111540394594e-09 0.0000000000000000e+00  -1.0531813119897312e-09 1.5906619686040736e-09 0.0000000000000000e+00  -6.9855030074278361e-10 1.7610996638031934e-09 0.0000000000000000e+00  -2.9798511946478834e-10 1.8262451614900349e-09 0.0000000000000000e+00  -1.7235592203052008e-13 5.2580101638986415e-12 0.0000000000000000e+00  -5.8498629331575421e-14 -3.3970877188168406e-12 0.0000000000000000e+00  -2.4206703857702153e-10 -1.4431208527923832e-09 0.0000000000000000e+00  -5.7757947585701446e-10 -1.4094781450459601e-09 0.0000000000000000e+00  -8.8134308021834626e-10 -1.2891562862274054e-09 0.0000000000000000e+00  -1.1409923612654178e-09 -1.1289290109955155e-09 0.0000000000000000e+00  -1.3506569757473004e-09 -9.4656562100226859e-10 0.0000000000000000e+00  -1.5120494851090888e-09 -7.5481503316448384e-10 0.0000000000000000e+00  -1.6296406705689719e-09 -5.6180292338484865e-10 0.0000000000000000e+00  -1.7088447661975934e-09 -3.7154696705988802e-10 0.0000000000000000e+00  -1.7543222341544673e-09 -1.8485979497887284e-10 0.0000000000000000e+00  -1.7691287219928305e-09 -4.6813005788614021e-13 0.0000000000000000e+00  -1.7543245712157039e-09 1.8390948025339752e-10 0.0000000000000000e+00  -1.7088627239386651e-09 3.7055384109679679e-10 0.0000000000000000e+00  -1.6296979545191051e-09 5.6073596876482920e-10 0.0000000000000000e+00  -1.5121861329636203e-09 7.5363816822338294e-10 0.0000000000000000e+00  -1.3509579647154211e-09 9.4525078951956753e-10 0.0000000000000000e+00  -1.1415099666379912e-09 1.1275053421644741e-09 0.0000000000000000e+00  -8.8243123078670327e-10 1.2879723256686729e-09 0.0000000000000000e+00  -5.7832744144467102e-10 1.4092754646485085e-09 0.0000000000000000e+00  -2.4467750123113396e-10 1.4510809376832259e-09 0.0000000000000000e+00  -1.2808769381552000e-13 4.1490441427661390e-12 0.0000000000000000e+00  -4.9407518769644096e-14 -2.6206963348181987e-12 0.0000000000000000e+00  -2.0540696876897039e-10 -1.1302587011567217e-09 0.0000000000000000e+00  -4.9238591643172618e-10 -1.1092590393425447e-09 0.0000000000000000e+00  -7.5740840003485913e-10 -1.0227219354847146e-09 0.0000000000000000e+00  -9.9031017838113955e-10 -9.0461383067291106e-10 0.0000000000000000e+00  -1.1847845768400398e-09 -7.6660291798854739e-10 0.0000000000000000e+00  -1.3397734724406760e-09 -6.1752016674920375e-10 0.0000000000000000e+00  -1.4564666108000839e-09 -4.6361847293000505e-10 0.0000000000000000e+00  -1.5372676697874497e-09 -3.0864954370185144e-10 0.0000000000000000e+00  -1.5845974774560336e-09 -1.5422759643235627e-10 0.0000000000000000e+00  -1.6001743466948661e-09 -4.6484874502243528e-13 0.0000000000000000e+00  -1.5846154064311283e-09 1.5328896250923718e-10 0.0000000000000000e+00  -1.5373135583462522e-09 3.0768454078240422e-10 0.0000000000000000e+00  -1.4565613635481704e-09 4.6261033617487633e-10 0.0000000000000000e+00  -1.3399505931874094e-09 6.1645423008249720e-10 0.0000000000000000e+00  -1.1851056160796362e-09 7.6547592185136540e-10 0.0000000000000000e+00  -9.9081027348751545e-10 9.0347913820299454e-10 0.0000000000000000e+00  -7.5830637252313155e-10 1.0218943859772070e-09 0.0000000000000000e+00  -4.9297226478182818e-10 1.1093040159634293e-09 0.0000000000000000e+00  -2.0737112060181412e-10 1.1370572491277320e-09 0.0000000000000000e+00  -9.7719986692556906e-14 3.2503346525495849e-12 0.0000000000000000e+00  -4.3611796855157307e-14 -1.9521799324629501e-12 0.0000000000000000e+00  -1.7949015532262878e-10 -8.6039891245993490e-10 0.0000000000000000e+00  -4.3150394599951310e-10 -8.4737351415588471e-10 0.0000000000000000e+00  -6.6737959824032741e-10 -7.8552581918045713e-10 0.0000000000000000e+00  -8.7852890103401198e-10 -6.9960376258972077e-10 0.0000000000000000e+00  -1.0588513109760009e-09 -5.9730481455509733e-10 0.0000000000000000e+00  -1.2059572599159980e-09 -4.8462973825983118e-10 0.0000000000000000e+00  -1.3191781340880020e-09 -3.6614673713795227e-10 0.0000000000000000e+00  -1.3990339533141089e-09 -2.4495752591155767e-10 0.0000000000000000e+00  -1.4464350481004272e-09 -1.2281237264139919e-10 0.0000000000000000e+00  -1.4621458044546530e-09 -4.5589452849870840e-13 0.0000000000000000e+00  -1.4464589070826304e-09 1.2189603695062075e-10 0.0000000000000000e+00  -1.3990895252627759e-09 2.4402823670764353e-10 0.0000000000000000e+00  -1.3192822296038655e-09 3.6519883438256605e-10 0.0000000000000000e+00  -1.2061362167473607e-09 4.8366389394061515e-10 0.0000000000000000e+00  -1.0591469684687892e-09 5.9633447784026425e-10 0.0000000000000000e+00  -8.7895721081524586e-10 6.9868492142382331e-10 0.0000000000000000e+00  -6.6807624145023687e-10 7.8492157380295406e-10 0.0000000000000000e+00  -4.3194084541067439e-10 8.4753515849726522e-10 0.0000000000000000e+00  -1.8094467550992670e-10 8.6634391842014884e-10 0.0000000000000000e+00  -7.7491727903958152e-14 2.4966930894536109e-12 0.0000000000000000e+00  -4.0313367716189341e-14 -1.3581244595665084e-12 0.0000000000000000e+00  -1.6142454819922333e-10 -6.2096921548820840e-10 0.0000000000000000e+00  -3.8870069291750654e-10 -6.1329929484308632e-10 0.0000000000000000e+00  -6.0336909372252155e-10 -5.7063731719653814e-10 0.0000000000000000e+00  -7.9787921385797145e-10 -5.1059899124062474e-10 0.0000000000000000e+00  -9.6649312865525674e-10 -4.3816947908123840e-10 0.0000000000000000e+00  -1.1062002770221256e-09 -3.5730099730102640e-10 0.0000000000000000e+00  -1.2153128187279988e-09 -2.7115280259424479e-10 0.0000000000000000e+00  -1.2932222719431655e-09 -1.8205412698426433e-10 0.0000000000000000e+00  -1.3398780995815923e-09 -9.1522582509833483e-11 0.0000000000000000e+00  -1.3554132354220590e-09 -4.4528306817613628e-13 0.0000000000000000e+00  -1.3399012632096117e-09 9.0630905890453106e-11 0.0000000000000000e+00  -1.2932745218559876e-09 1.8116019457409131e-10 0.0000000000000000e+00  -1.2154064386021497e-09 2.7025911711745296e-10 0.0000000000000000e+00  -1.1063536619731541e-09 3.5641711994854806e-10 0.0000000000000000e+00  -9.6673288009230512e-10 4.3731589651218429e-10 0.0000000000000000e+00  -7.9821052006931217e-10 5.0982786494366527e-10 0.0000000000000000e+00  -6.0387544523711976e-10 5.7017248201336701e-10 0.0000000000000000e+00  -3.8900875692900299e-10 6.1351749572520504e-10 0.0000000000000000e+00  -1.6245483567135374e-10 6.2630839679281706e-10 0.0000000000000000e+00  -6.3425688467351348e-14 1.8437441277282771e-12 0.0000000000000000e+00  -3.9056538890937170e-14 -8.1330692989006493e-13 0.0000000000000000e+00  -1.4950991532260475e-10 -4.0240291547838314e-10 0.0000000000000000e+00  -3.6024791245151753e-10 -3.9862691410406362e-10 0.0000000000000000e+00  -5.6050183219678498e-10 -3.7182993718739731e-10 0.0000000000000000e+00  -7.4332742268379250e-10 -3.3373782744716360e-10 0.0000000000000000e+00  -9.0332266957420903e-10