<?xml version="1.0"?>
<VTKFile type="UnstructuredGrid"  version="0.1"  >
<UnstructuredGrid>
<Piece  NumberOfPoints="651" NumberOfCells="1200">
<Points>
<DataArray  type="Float64"  NumberOfComponents="3"  format="ascii">0 0 0  50000 0 0  100000 0 0  150000 0 0  200000 0 0  250000 0 0  300000 0 0  350000 0 0  400000 0 0  450000 0 0  500000 0 0  550000 0 0  600000 0 0  650000 0 0  700000 0 0  750000 0 0  800000 0 0  850000 0 0  900000 0 0  950000 0 0  1000000 0 0  0 50000 0  50000 50000 0  100000 50000 0  150000 50000 0  200000 50000 0  250000 50000 0  300000 50000 0  350000 50000 0  400000 50000 0  450000 50000 0  500000 50000 0  550000 50000 0  600000 50000 0  650000 50000 0  700000 50000 0  750000 50000 0  800000 50000 0  850000 50000 0  900000 50000 0  950000 50000 0  1000000 50000 0  0 100000 0  50000 100000 0  100000 100000 0  150000 100000 0  200000 100000 0  250000 100000 0  300000 100000 0  350000 100000 0  400000 100000 0  450000 100000 0  500000 100000 0  550000 100000 0  600000 100000 0  650000 100000 0  700000 100000 0  750000 100000 0  800000 100000 0  850000 100000 0  900000 100000 0  950000 100000 0  1000000 100000 0  0 150000 0  50000 150000 0  100000 150000 0  150000 150000 0  200000 150000 0  250000 150000 0  300000 150000 0  350000 150000 0  400000 150000 0  450000 150000 0  500000 150000 0  550000 150000 0  600000 150000 0  650000 150000 0  700000 150000 0  750000 150000 0  800000 150000 0  850000 150000 0  900000 150000 0  950000 150000 0  1000000 150000 0  0 200000 0  50000 200000 0  100000 200000 0  150000 200000 0  200000 200000 0  250000 200000 0  300000 200000 0  350000 200000 0  400000 200000 0  450000 200000 0  500000 200000 0  550000 200000 0  600000 200000 0  650000 200000 0  700000 200000 0  750000 200000 0  800000 200000 0  850000 200000 0  900000 200000 0  950000 200000 0  1000000 200000 0  0 250000 0  50000 250000 0  100000 250000 0  150000 250000 0  200000 250000 0  250000 250000 0  300000 250000 0  350000 250000 0  400000 250000 0  450000 250000 0  500000 250000 0  550000 250000 0  600000 250000 0  650000 250000 0  700000 250000 0  750000 250000 0  800000 250000 0  850000 250000 0  900000 250000 0  950000 250000 0  1000000 250000 0  0 300000 0  50000 300000 0  100000 300000 0  150000 300000 0  200000 300000 0  250000 300000 0  300000 300000 0  350000 300000 0  400000 300000 0  450000 300000 0  500000 300000 0  550000 300000 0  600000 300000 0  650000 300000 0  700000 300000 0  750000 300000 0  800000 300000 0  850000 300000 0  900000 300000 0  950000 300000 0  1000000 300000 0  0 350000 0  50000 350000 0  100000 350000 0  150000 350000 0  200000 350000 0  250000 350000 0  300000 350000 0  350000 350000 0  400000 350000 0  450000 350000 0  500000 350000 0  550000 350000 0  600000 350000 0  650000 350000 0  700000 350000 0  750000 350000 0  800000 350000 0  850000 350000 0  900000 350000 0  950000 350000 0  1000000 350000 0  0 400000 0  50000 400000 0  100000 400000 0  150000 400000 0  200000 400000 0  250000 400000 0  300000 400000 0  350000 400000 0  400000 400000 0  450000 400000 0  500000 400000 0  550000 400000 0  600000 400000 0  650000 400000 0  700000 400000 0  750000 400000 0  800000 400000 0  850000 400000 0  900000 400000 0  950000 400000 0  1000000 400000 0  0 450000 0  50000 450000 0  100000 450000 0  150000 450000 0  200000 450000 0  250000 450000 0  300000 450000 0  350000 450000 0  400000 450000 0  450000 450000 0  500000 450000 0  550000 450000 0  600000 450000 0  650000 450000 0  700000 450000 0  750000 450000 0  800000 450000 0  850000 450000 0  900000 450000 0  950000 450000 0  1000000 450000 0  0 500000 0  50000 500000 0  100000 500000 0  150000 500000 0  200000 500000 0  250000 500000 0  300000 500000 0  350000 500000 0  400000 500000 0  450000 500000 0  500000 500000 0  550000 500000 0  600000 500000 0  650000 500000 0  700000 500000 0  750000 500000 0  800000 500000 0  850000 500000 0  900000 500000 0  950000 500000 0  1000000 500000 0  0 550000 0  50000 550000 0  100000 550000 0  150000 550000 0  200000 550000 0  250000 550000 0  300000 550000 0  350000 550000 0  400000 550000 0  450000 550000 0  500000 550000 0  550000 550000 0  600000 550000 0  650000 550000 0  700000 550000 0  750000 550000 0  800000 550000 0  850000 550000 0  900000 550000 0  950000 550000 0  1000000 550000 0  0 600000 0  50000 600000 0  100000 600000 0  150000 600000 0  200000 600000 0  250000 600000 0  300000 600000 0  350000 600000 0  400000 600000 0  450000 600000 0  500000 600000 0  550000 600000 0  600000 600000 0  650000 600000 0  700000 600000 0  750000 600000 0  800000 600000 0  850000 600000 0  900000 600000 0  950000 600000 0  1000000 600000 0  0 650000 0  50000 650000 0  100000 650000 0  150000 650000 0  200000 650000 0  250000 650000 0  300000 650000 0  350000 650000 0  400000 650000 0  450000 650000 0  500000 650000 0  550000 650000 0  600000 650000 0  650000 650000 0  700000 650000 0  750000 650000 0  800000 650000 0  850000 650000 0  900000 650000 0  950000 650000 0  1000000 650000 0  0 700000 0  50000 700000 0  100000 700000 0  150000 700000 0  200000 700000 0  250000 700000 0  300000 700000 0  350000 700000 0  400000 700000 0  450000 700000 0  500000 700000 0  550000 700000 0  600000 700000 0  650000 700000 0  700000 700000 0  750000 700000 0  800000 700000 0  850000 700000 0  900000 700000 0  950000 700000 0  1000000 700000 0  0 750000 0  50000 750000 0  100000 750000 0  150000 750000 0  200000 750000 0  250000 750000 0  300000 750000 0  350000 750000 0  400000 750000 0  450000 750000 0  500000 750000 0  550000 750000 0  600000 750000 0  650000 750000 0  700000 750000 0  750000 750000 0  800000 750000 0  850000 750000 0  900000 750000 0  950000 750000 0  1000000 750000 0  0 800000 0  50000 800000 0  100000 800000 0  150000 800000 0  200000 800000 0  250000 800000 0  300000 800000 0  350000 800000 0  400000 800000 0  450000 800000 0  500000 800000 0  550000 800000 0  600000 800000 0  650000 800000 0  700000 800000 0  750000 800000 0  800000 800000 0  850000 800000 0  900000 800000 0  950000 800000 0  1000000 800000 0  0 850000 0  50000 850000 0  100000 850000 0  150000 850000 0  200000 850000 0  250000 850000 0  300000 850000 0  350000 850000 0  400000 850000 0  450000 850000 0  500000 850000 0  550000 850000 0  600000 850000 0  650000 850000 0  700000 850000 0  750000 850000 0  800000 850000 0  850000 850000 0  900000 850000 0  950000 850000 0  1000000 850000 0  0 900000 0  50000 900000 0  100000 900000 0  150000 900000 0  200000 900000 0  250000 900000 0  300000 900000 0  350000 900000 0  400000 900000 0  450000 900000 0  500000 900000 0  550000 900000 0  600000 900000 0  650000 900000 0  700000 900000 0  750000 900000 0  800000 900000 0  850000 900000 0  900000 900000 0  950000 900000 0  1000000 900000 0  0 950000 0  50000 950000 0  100000 950000 0  150000 950000 0  200000 950000 0  250000 950000 0  300000 950000 0  350000 950000 0  400000 950000 0  450000 950000 0  500000 950000 0  550000 950000 0  600000 950000 0  650000 950000 0  700000 950000 0  750000 950000 0  800000 950000 0  850000 950000 0  900000 950000 0  950000 950000 0  1000000 950000 0  0 1000000 0  50000 1000000 0  100000 1000000 0  150000 1000000 0  200000 1000000 0  250000 1000000 0  300000 1000000 0  350000 1000000 0  400000 1000000 0  450000 1000000 0  500000 1000000 0  550000 1000000 0  600000 1000000 0  650000 1000000 0  700000 1000000 0  750000 1000000 0  800000 1000000 0  850000 1000000 0  900000 1000000 0  950000 1000000 0  1000000 1000000 0  0 1050000 0  50000 1050000 0  100000 1050000 0  150000 1050000 0  200000 1050000 0  250000 1050000 0  300000 1050000 0  350000 1050000 0  400000 1050000 0  450000 1050000 0  500000 1050000 0  550000 1050000 0  600000 1050000 0  650000 1050000 0  700000 1050000 0  750000 1050000 0  800000 1050000 0  850000 1050000 0  900000 1050000 0  950000 1050000 0  1000000 1050000 0  0 1100000 0  50000 1100000 0  100000 1100000 0  150000 1100000 0  200000 1100000 0  250000 1100000 0  300000 1100000 0  350000 1100000 0  400000 1100000 0  450000 1100000 0  500000 1100000 0  550000 1100000 0  600000 1100000 0  650000 1100000 0  700000 1100000 0  750000 1100000 0  800000 1100000 0  850000 1100000 0  900000 1100000 0  950000 1100000 0  1000000 1100000 0  0 1150000 0  50000 1150000 0  100000 1150000 0  150000 1150000 0  200000 1150000 0  250000 1150000 0  300000 1150000 0  350000 1150000 0  400000 1150000 0  450000 1150000 0  500000 1150000 0  550000 1150000 0  600000 1150000 0  650000 1150000 0  700000 1150000 0  750000 1150000 0  800000 1150000 0  850000 1150000 0  900000 1150000 0  950000 1150000 0  1000000 1150000 0  0 1200000 0  50000 1200000 0  100000 1200000 0  150000 1200000 0  200000 1200000 0  250000 1200000 0  300000 1200000 0  350000 1200000 0  400000 1200000 0  450000 1200000 0  500000 1200000 0  550000 1200000 0  600000 1200000 0  650000 1200000 0  700000 1200000 0  750000 1200000 0  800000 1200000 0  850000 1200000 0  900000 1200000 0  950000 1200000 0  1000000 1200000 0  0 1250000 0  50000 1250000 0  100000 1250000 0  150000 1250000 0  200000 1250000 0  250000 1250000 0  300000 1250000 0  350000 1250000 0  400000 1250000 0  450000 1250000 0  500000 1250000 0  550000 1250000 0  600000 1250000 0  650000 1250000 0  700000 1250000 0  750000 1250000 0  800000 1250000 0  850000 1250000 0  900000 1250000 0  950000 1250000 0  1000000 1250000 0  0 1300000 0  50000 1300000 0  100000 1300000 0  150000 1300000 0  200000 1300000 0  250000 1300000 0  300000 1300000 0  350000 1300000 0  400000 1300000 0  450000 1300000 0  500000 1300000 0  550000 1300000 0  600000 1300000 0  650000 1300000 0  700000 1300000 0  750000 1300000 0  800000 1300000 0  850000 1300000 0  900000 1300000 0  950000 1300000 0  1000000 1300000 0  0 1350000 0  50000 1350000 0  100000 1350000 0  150000 1350000 0  200000 1350000 0  250000 1350000 0  300000 1350000 0  350000 1350000 0  400000 1350000 0  450000 1350000 0  500000 1350000 0  550000 1350000 0  600000 1350000 0  650000 1350000 0  700000 135
[...]
<PointData  Vectors="f_25021"> 
<DataArray  type="Float64"  Name="f_25021"  NumberOfComponents="3" format="ascii">-1.0601509571927517e-10 -7.0033638306236386e-11 0.0000000000000000e+00  7.9926292247838212e-08 -6.1942828484298699e-11 0.0000000000000000e+00  7.9992816658006045e-08 5.3567953277792187e-13 0.0000000000000000e+00  7.9983309308837707e-08 8.3202220268251864e-13 0.0000000000000000e+00  7.9990750097572568e-08 1.2395804594624576e-14 0.0000000000000000e+00  7.9992289471068449e-08 3.1242512615967418e-13 0.0000000000000000e+00  7.9993360197664657e-08 1.5527645534992020e-13 0.0000000000000000e+00  7.9994035486239266e-08 1.0929156503071939e-13 0.0000000000000000e+00  7.9994406303704522e-08 7.1599009241439211e-14 0.0000000000000000e+00  7.9994585572423568e-08 4.1559922910870307e-14 0.0000000000000000e+00  7.9994597848098968e-08 1.7754386982570976e-14 0.0000000000000000e+00  7.9994445229283991e-08 -2.0435854209987864e-15 0.0000000000000000e+00  7.9994100736232038e-08 -2.1429092823874846e-14 0.0000000000000000e+00  7.9993511393830041e-08 -4.1282502049638113e-14 0.0000000000000000e+00  7.9992434812516532e-08 3.7144874889116815e-14 0.0000000000000000e+00  7.9990927100401123e-08 -3.1108510017086782e-13 0.0000000000000000e+00  7.9987941039456858e-08 1.1845718751683110e-12 0.0000000000000000e+00  7.9972469494612849e-08 5.7177475443626261e-12 0.0000000000000000e+00  7.9993161450389608e-08 -3.0650888531473232e-11 0.0000000000000000e+00  7.9557848714928572e-08 4.0146508396681056e-10 0.0000000000000000e+00  -5.7838022514622629e-10 5.1231045876090882e-10 0.0000000000000000e+00  -8.3280218395484078e-11 -6.5575266583139212e-11 0.0000000000000000e+00  -1.3173706844590883e-08 -1.6135122125089148e-08 0.0000000000000000e+00  -1.5643103828365392e-09 -4.9980004934188878e-09 0.0000000000000000e+00  -7.3247442351605620e-11 -2.3396775764181391e-09 0.0000000000000000e+00  2.8360959189233266e-09 -1.1941401094669030e-09 0.0000000000000000e+00  3.9660749923845010e-09 -6.8591290652016955e-10 0.0000000000000000e+00  4.7392626618679553e-09 -4.3608235657013186e-10 0.0000000000000000e+00  5.2244108072381087e-09 -2.7990274403706365e-10 0.0000000000000000e+00  5.5210095868615545e-09 -1.7418349225408945e-10 0.0000000000000000e+00  5.6834904203078154e-09 -9.3185514957880512e-11 0.0000000000000000e+00  5.7348163394985831e-09 -2.2527033290082833e-11 0.0000000000000000e+00  5.6823489080731508e-09 4.8172061833747859e-11 0.0000000000000000e+00  5.5188150346106118e-09 1.2936924097792912e-10 0.0000000000000000e+00  5.2194521272948290e-09 2.3522632506464839e-10 0.0000000000000000e+00  4.7375510709928546e-09 3.9095080801099176e-10 0.0000000000000000e+00  3.9687934863797972e-09 6.4748475793290370e-10 0.0000000000000000e+00  2.6918649510414880e-09 1.1172045665146184e-09 0.0000000000000000e+00  8.6985647144140484e-10 2.2763654841355823e-09 0.0000000000000000e+00  -4.8062128062895895e-09 5.1301640735968230e-09 0.0000000000000000e+00  -9.3390977266109990e-09 1.5279263550964351e-08 0.0000000000000000e+00  -4.2570368943763184e-10 4.1129527740128263e-10 0.0000000000000000e+00  -8.5261044640524903e-12 -1.2526779410872594e-11 0.0000000000000000e+00  -6.0815211638898645e-09 -1.1753257479266636e-08 0.0000000000000000e+00  -8.0302964574116367e-09 -7.9399559110589791e-09 0.0000000000000000e+00  -7.6073405881308740e-09 -4.4742622709874011e-09 0.0000000000000000e+00  -6.1785527836098115e-09 -2.4806238257567549e-09 0.0000000000000000e+00  -5.4756791876961649e-09 -1.5300116597155693e-09 0.0000000000000000e+00  -4.8245751017550585e-09 -9.6863019168543531e-10 0.0000000000000000e+00  -4.4187978234680303e-09 -6.0854882446791087e-10 0.0000000000000000e+00  -4.1537012322587736e-09 -3.5628714878280320e-10 0.0000000000000000e+00  -4.0056238141593614e-09 -1.5862300738898238e-10 0.0000000000000000e+00  -3.9581329308440041e-09 1.5308721803563907e-11 0.0000000000000000e+00  -4.0057041656430355e-09 1.8924033962366237e-10 0.0000000000000000e+00  -4.1535107228102042e-09 3.8683152127266472e-10 0.0000000000000000e+00  -4.4176236257580281e-09 6.3918734324426686e-10 0.0000000000000000e+00  -4.8287273907580514e-09 9.9669782115935824e-10 0.0000000000000000e+00  -5.4364822527183741e-09 1.5537730318320861e-09 0.0000000000000000e+00  -6.2733122668780286e-09 2.5114282235994870e-09 0.0000000000000000e+00  -7.4988295958772095e-09 4.3218685780710168e-09 0.0000000000000000e+00  -8.1695713391147841e-09 7.9494218939142116e-09 0.0000000000000000e+00  -5.0990485412912105e-09 1.4538578226061629e-08 0.0000000000000000e+00  1.2076689915588166e-11 2.2520118415059142e-12 0.0000000000000000e+00  6.6199993117006960e-13 -1.3854460277368008e-11 0.0000000000000000e+00  -2.5480862387562883e-09 -9.0423200645182103e-09 0.0000000000000000e+00  -4.9801416476925460e-09 -7.1414441304270317e-09 0.0000000000000000e+00  -5.4601940855681786e-09 -4.6748370850527850e-09 0.0000000000000000e+00  -5.3795311957762598e-09 -3.1180383731261386e-09 0.0000000000000000e+00  -5.0820370868086628e-09 -2.0818552951197364e-09 0.0000000000000000e+00  -4.7325700377964997e-09 -1.3808824885322762e-09 0.0000000000000000e+00  -4.4847859692357887e-09 -9.0187929977049292e-10 0.0000000000000000e+00  -4.3024921806133795e-09 -5.4600602671680409e-10 0.0000000000000000e+00  -4.1971684521960456e-09 -2.5840356838990652e-10 0.0000000000000000e+00  -4.1623304401898040e-09 -1.3743258645727911e-12 0.0000000000000000e+00  -4.1964902739015450e-09 2.5564096937418367e-10 0.0000000000000000e+00  -4.3011882525775936e-09 5.4301855045451590e-10 0.0000000000000000e+00  -4.4803298625922610e-09 8.9854556210350865e-10 0.0000000000000000e+00  -4.7368701242527424e-09 1.3775928138803991e-09 0.0000000000000000e+00  -5.0593494605973571e-09 2.0696990000985620e-09 0.0000000000000000e+00  -5.4003268755309630e-09 3.1237081222877728e-09 0.0000000000000000e+00  -5.5198852885979288e-09 4.7557290717703144e-09 0.0000000000000000e+00  -4.8088605647722964e-09 7.1769984578080405e-09 0.0000000000000000e+00  -2.5284722335974662e-09 8.4646520353730041e-09 0.0000000000000000e+00  -1.8010538768629195e-12 2.3583743413777352e-11 0.0000000000000000e+00  1.8324357248693170e-13 -8.5914669971968059e-12 0.0000000000000000e+00  -1.3725832470493095e-09 -6.2394448313138692e-09 0.0000000000000000e+00  -2.9994750181733753e-09 -5.6167544284303244e-09 0.0000000000000000e+00  -3.8705525952897929e-09 -4.3684637104958139e-09 0.0000000000000000e+00  -4.2274481049405953e-09 -3.1935336696378349e-09 0.0000000000000000e+00  -4.2397860431667361e-09 -2.2594418033075677e-09 0.0000000000000000e+00  -4.1604114755378078e-09 -1.5748501500043998e-09 0.0000000000000000e+00  -4.0578044101764362e-09 -1.0595146111730230e-09 0.0000000000000000e+00  -3.9668088988829401e-09 -6.5243687319291664e-10 0.0000000000000000e+00  -3.9096824212876953e-09 -3.1101065611428137e-10 0.0000000000000000e+00  -3.8897724234601928e-09 1.6311716722055945e-13 0.0000000000000000e+00  -3.9090835664813229e-09 3.1128741986967113e-10 0.0000000000000000e+00  -3.9661404808581273e-09 6.5252289939385211e-10 0.0000000000000000e+00  -4.0551703572900621e-09 1.0588242059825060e-09 0.0000000000000000e+00  -4.1603694441708839e-09 1.5749735725257087e-09 0.0000000000000000e+00  -4.2435800636618093e-09 2.2596076772267168e-09 0.0000000000000000e+00  -4.2134990817796535e-09 3.1799784212056116e-09 0.0000000000000000e+00  -3.8864952590258448e-09 4.3789892511659853e-09 0.0000000000000000e+00  -2.9803240063868000e-09 5.6729412378674260e-09 0.0000000000000000e+00  -1.3347125439910887e-09 6.2795282477448864e-09 0.0000000000000000e+00  -1.8270196548802984e-12 1.1980121841049994e-11 0.0000000000000000e+00  3.2664667505683744e-13 -6.1636255138538134e-12 0.0000000000000000e+00  -8.5405156566223481e-10 -4.7312166827427814e-09 0.0000000000000000e+00  -2.0225565532008695e-09 -4.5623990398055461e-09 0.0000000000000000e+00  -2.8401339896774653e-09 -3.7738809512799848e-09 0.0000000000000000e+00  -3.2975541050520839e-09 -2.9337870781753784e-09 0.0000000000000000e+00  -3.5116144321758586e-09 -2.2069692357524431e-09 0.0000000000000000e+00  -3.5933736418235921e-09 -1.6055746038111839e-09 0.0000000000000000e+00  -3.6038227440222764e-09 -1.1103216840841588e-09 0.0000000000000000e+00  -3.5911841508022309e-09 -6.9687357080661832e-10 0.0000000000000000e+00  -3.5767843967967289e-09 -3.3578568620852597e-10 0.0000000000000000e+00  -3.5707157470258896e-09 9.7730130799361293e-14 0.0000000000000000e+00  -3.5764135041502831e-09 3.3592588594982841e-10 0.0000000000000000e+00  -3.5907575438497771e-09 6.9696128913627848e-10 0.0000000000000000e+00  -3.6032896382891778e-09 1.1101723027544664e-09 0.0000000000000000e+00  -3.5917752302426396e-09 1.6048134043578170e-09 0.0000000000000000e+00  -3.5138686612843292e-09 2.2092716143406084e-09 0.0000000000000000e+00  -3.2966129254520790e-09 2.9388388558042215e-09 0.0000000000000000e+00  -2.8327538503937720e-09 3.7604284843465362e-09 0.0000000000000000e+00  -2.0149867374151423e-09 4.5434596592304272e-09 0.0000000000000000e+00  -8.5514975005913185e-10 4.7418591180018689e-09 0.0000000000000000e+00  3.9538047064526101e-13 7.7380238049616946e-12 0.0000000000000000e+00  2.3531481787983486e-13 -4.7182137325737373e-12 0.0000000000000000e+00  -5.9898975387700395e-10 -3.6867479537444883e-09 0.0000000000000000e+00  -1.4638660937847059e-09 -3.6428923769038661e-09 0.0000000000000000e+00  -2.1494687647877713e-09 -3.1542067458445290e-09 0.0000000000000000e+00  -2.6217838850446209e-09 -2.5850287397387291e-09 0.0000000000000000e+00  -2.9154772064477441e-09 -2.0285595786761856e-09 0.0000000000000000e+00  -3.0821676840600642e-09 -1.5233646959288820e-09 0.0000000000000000e+00  -3.1700815110941509e-09 -1.0802503532909699e-09 0.0000000000000000e+00  -3.2133932131962187e-09 -6.8983174062524626e-10 0.0000000000000000e+00  -3.2318546183469127e-09 -3.3571482338880639e-10 0.0000000000000000e+00  -3.2368180276811486e-09 -7.7319281520991613e-14 0.0000000000000000e+00  -3.2316887826595598e-09 3.3552329944541972e-10 0.0000000000000000e+00  -3.2130553889336521e-09 6.8957385430325536e-10 0.0000000000000000e+00  -3.1699753031569212e-09 1.0800941988732969e-09 0.0000000000000000e+00  -3.0816628009821264e-09 1.5229377370865534e-09 0.0000000000000000e+00  -2.9145548638747946e-09 2.0270755541381367e-09 0.0000000000000000e+00  -2.6212976088416745e-09 2.5844284126174361e-09 0.0000000000000000e+00  -2.1482482693560282e-09 3.1553253550538203e-09 0.0000000000000000e+00  -1.4611235694761854e-09 3.6445125836902857e-09 0.0000000000000000e+00  -5.9965984875184745e-10 3.6890230958221869e-09 0.0000000000000000e+00  5.5342728929902326e-14 5.9475693479941075e-12 0.0000000000000000e+00  1.8527060706934789e-13 -3.6544260419284854e-12 0.0000000000000000e+00  -4.4834404852563806e-10 -2.9153913511356365e-09 0.0000000000000000e+00  -1.1172007033736789e-09 -2.9341444342537164e-09 0.0000000000000000e+00  -1.6899422908526703e-09 -2.6160443401845455e-09 0.0000000000000000e+00  -2.1292191298638265e-09 -2.2111117533375778e-09 0.0000000000000000e+00  -2.4400316554343781e-09 -1.7865581745943822e-09 0.0000000000000000e+00  -2.6477109329954079e-09 -1.3774481656302200e-09 0.0000000000000000e+00  -2.7796336407602517e-09 -9.9713980217290428e-10 0.0000000000000000e+00  -2.8581048931155480e-09 -6.4585047816688046e-10 0.0000000000000000e+00  -2.8990473434130990e-09 -3.1699754018348122e-10 0.0000000000000000e+00  -2.9117033567181124e-09 -1.2848759843574675e-13 0.0000000000000000e+00  -2.8989708222462903e-09 3.1673215819965205e-10 0.0000000000000000e+00  -2.8579149261610295e-09 6.4553114563814118e-10 0.0000000000000000e+00  -2.7793982430202425e-09 9.9676116288021247e-10 0.0000000000000000e+00  -2.6475002025585559e-09 1.3771781036649912e-09 0.0000000000000000e+00  -2.4394891335618272e-09 1.7858979201589436e-09 0.0000000000000000e+00  -2.1282283374334437e-09 2.2087616809999772e-09 0.0000000000000000e+00  -1.6895883918435763e-09 2.6123867271831481e-09 0.0000000000000000e+00  -1.1172495975772024e-09 2.9348283866019312e-09 0.0000000000000000e+00  -4.4925215819901872e-10 2.9216796247554201e-09 0.0000000000000000e+00  1.1582671275631845e-13 4.4918212503588147e-12 0.0000000000000000e+00  1.5195497999527624e-13 -2.8652373306140103e-12 0.0000000000000000e+00  -3.5282183346151487e-10 -2.3205402094284685e-09 0.0000000000000000e+00  -8.9022891982517577e-10 -2.3602122161708329e-09 0.0000000000000000e+00  -1.3715837055442964e-09 -2.1416341275841956e-09 0.0000000000000000e+00  -1.7657597248978302e-09 -1.8496144977333078e-09 0.0000000000000000e+00  -2.0683070735322745e-09 -1.5280669673383255e-09 0.0000000000000000e+00  -2.2888294473562911e-09 -1.2015071662397901e-09 0.0000000000000000e+00  -2.4411895360805266e-09 -8.8348219461732980e-10 0.0000000000000000e+00  -2.5392007318541471e-09 -5.7884950540388250e-10 0.0000000000000000e+00  -2.5936209794208634e-09 -2.8613570275666747e-10 0.0000000000000000e+00  -2.6110073250154183e-09 -1.7769989343975096e-13 0.0000000000000000e+00  -2.5935636575841765e-09 2.8577358865124831e-10 0.0000000000000000e+00  -2.5390916894491635e-09 5.7845921856004247e-10 0.0000000000000000e+00  -2.4409944939357773e-09 8.8298906334233454e-10 0.0000000000000000e+00  -2.2885602543760306e-09 1.2008193095549312e-09 0.0000000000000000e+00  -2.0680378791948901e-09 1.5271795039649951e-09 0.0000000000000000e+00  -1.7654328772391203e-09 1.8482960194662536e-09 0.0000000000000000e+00  -1.3716665884953500e-09 2.1397038851991382e-09 0.0000000000000000e+00  -8.9062542029239772e-10 2.3614424277816529e-09 0.0000000000000000e+00  -3.5376997242143903e-10 2.3252675411116042e-09 0.0000000000000000e+00  1.0944544896006304e-13 3.5065304443236898e-12 0.0000000000000000e+00  1.2711804367212249e-13 -2.2374805345421380e-12 0.0000000000000000e+00  -2.8870602299097594e-10 -1.8402978698159169e-09 0.0000000000000000e+00  -7.3415375068131812e-10 -1.8845829285445436e-09 0.0000000000000000e+00  -1.1448873705697052e-09 -1.7306555335283764e-09 0.0000000000000000e+00  -1.4959563377868862e-09 -1.5170928926614286e-09 0.0000000000000000e+00  -1.7796360444497799e-09 -1.2727766474926559e-09 0.0000000000000000e+00  -1.9977785523581472e-09 -1.0150817380712502e-09 0.0000000000000000e+00  -2.1564984041588884e-09 -7.5541285294705412e-10 0.0000000000000000e+00  -2.2632676365127013e-09 -4.9941641196050765e-10 0.0000000000000000e+00  -2.3244971861577519e-09 -2.4825259582271816e-10 0.0000000000000000e+00  -2.3444045993787531e-09 -2.0979456826800949e-13 0.0000000000000000e+00  -2.3244524731648578e-09 2.4782003595195407e-10 0.0000000000000000e+00  -2.2631822060916987e-09 4.9894711945621572e-10 0.0000000000000000e+00  -2.1563724612023532e-09 7.5487007929981802e-10 0.0000000000000000e+00  -1.9976026181796798e-09 1.0143723598697206e-09 0.0000000000000000e+00  -1.7794854143946493e-09 1.2717835804897430e-09 0.0000000000000000e+00  -1.4959094028500254e-09 1.5157851797852348e-09 0.0000000000000000e+00  -1.1452253475935421e-09 1.7292918181706092e-09 0.0000000000000000e+00  -7.3465728796867856e-10 1.8861363202541178e-09 0.0000000000000000e+00  -2.8946160656764490e-10 1.8444134106292131e-09 0.0000000000000000e+00  9.8112029370580012e-14 2.7485308261893842e-12 0.0000000000000000e+00  1.0956685006087258e-13 -1.7194866258599181e-12 0.0000000000000000e+00  -2.4407707725777614e-10 -1.4395997178519485e-09 0.0000000000000000e+00  -6.2393471904867723e-10 -1.4810312780022866e-09 0.0000000000000000e+00  -9.8095588838368472e-10 -1.3710118121463571e-09 0.0000000000000000e+00  -1.2948187639260136e-09 -1.2140289804850699e-09 0.0000000000000000e+00  -1.5571933291573251e-09 -1.0296313583996807e-09 0.0000000000000000e+00  -1.7662669720025591e-09 -8.2973559372822273e-10 0.0000000000000000e+00  -1.9236073092422099e-09 -6.2300429837889024e-10 0.0000000000000000e+00  -2.0324865825661094e-09 -4.1467042992471222e-10 0.0000000000000000e+00  -2.0962194574832588e-09 -2.0701489110435804e-10 0.0000000000000000e+00  -2.1171717302880554e-09 -2.3499317945303167e-13 0.0000000000000000e+00  -2.0961878723038318e-09 2.0653273942974837e-10 0.0000000000000000e+00  -2.0324242800857500e-09 4.1414815392167036e-10 0.0000000000000000e+00  -1.9235246957596367e-09 6.2240890119492669e-10 0.0000000000000000e+00  -1.7661813466115959e-09 8.2902775916938155e-10 0.0000000000000000e+00  -1.5571651084472813e-09 1.0287662383971185e-09 0.0000000000000000e+00  -1.2948997399748601e-09 1.2129939769949187e-09 0.0000000000000000e+00  -9.8131911845356257e-10 1.3700277506590357e-09 0.0000000000000000e+00  -6.2440021721533771e-10 1.4825943959558020e-09 0.0000000000000000e+00  -2.4467618014519431e-10 1.4431976661933346e-09 0.0000000000000000e+00  9.0356436117967715e-14 2.1422653701620953e-12 0.0000000000000000e+00  9.6770621732994668e-14 -1.2770734915655518e-12 0.0000000000000000e+00  -2.1261304914769959e-10 -1.0950365415258979e-09 0.0000000000000000e+00  -5.4541928656360905e-10 -1.1300614294452694e-09 0.0000000000000000e+00  -8.6221654277065588e-10 -1.0518487809533713e-09 0.0000000000000000e+00  -1.1459916988254323e-09 -9.3789096943111205e-10 0.0000000000000000e+00  -1.3886792677344336e-09 -8.0149085652550921e-10 0.0000000000000000e+00  -1.5867328478821259e-09 -6.5065617538743809e-10 0.0000000000000000e+00  -1.7391706204279632e-09 -4.9168654407291923e-10 0.0000000000000000e+00  -1.8466704609668229e-09 -3.2889663224715535e-10 0.0000000000000000e+00  -1.9104614674901295e-09 -1.6473363707445053e-10 0.0000000000000000e+00  -1.9315858608259003e-09 -2.5377329096427700e-13 0.0000000000000000e+00  -1.9104402314238221e-09 1.6421585583247800e-10 0.0000000000000000e+00  -1.8466313565442215e-09 3.2834649737074043e-10 0.0000000000000000e+00  -1.7391249595563891e-09 4.9107898033870630e-10 0.0000000000000000e+00  -1.5867020330814106e-09 6.4996868054705630e-10 0.0000000000000000e+00  -1.3887141535002242e-09 8.0071729346089021e-10 0.0000000000000000e+00  -1.1461224820063475e-09 9.3705509002806698e-10 0.0000000000000000e+00  -8.6253909280532109e-10 1.0511347845931508e-09 0.0000000000000000e+00  -5.4579778083602726e-10 1.1315875895028182e-09 0.0000000000000000e+00  -2.1306988630356698e-10 1.0982183668254582e-09 0.0000000000000000e+00  8.3577018055164440e-14 1.6393232396355978e-12 0.0000000000000000e+00  8.7516522696420364e-14 -8.8644346014942471e-13 0.0000000000000000e+00  -1.9069989453169771e-10 -7.9008292317546314e-10 0.0000000000000000e+00  -4.9033696853590317e-10 -8.1712255170744146e-10 0.0000000000000000e+00  -7.7796166010622687e-10 -7.6345839652953001e-10 0.0000000000000000e+00  -1.0388140486533406e-09 -6.8393264650079187e-10 0.0000000000000000e+00  -1.2652864924131191e-09 -5.8748914142728484e-10 0.0000000000000000e+00  -1.4530543789105654e-09 -4.7935579454068467e-10 0.0000000000000000e+00  -1.5997551985488913e-09 -3.6387286499910928e-10 0.0000000000000000e+00  -1.7045200707943983e-09 -2.4426765201410719e-10 0.0000000000000000e+00  -1.7672546555522107e-09 -1.2265082948024725e-10 0.0000000000000000e+00  -1.7881299017028273e-09 -2.6612168049020769e-13 0.0000000000000000e+00  -1.7672415841541463e-09 1.2211037809093595e-10 0.0000000000000000e+00  -1.7044982503525718e-09 2.4370294956323070e-10 0.0000000000000000e+00  -1.5997354804370889e-09 3.6326956119881749e-10 0.0000000000000000e+00  -1.4530542909406726e-09 4.7870542379441205e-10 0.0000000000000000e+00  -1.2653416692532235e-09 5.8679940287575616e-10 0.0000000000000000e+00  -1.0389412258991231e-09 6.8323512988122041e-10 0.0000000000000000e+00  -7.7821448788138912e-10 7.6291116421293674e-10 0.0000000000000000e+00  -4.9061958483373889e-10 8.1859430911689219e-10 0.0000000000000000e+00  -1.9102872822314849e-10 7.9296681951543388e-10 0.0000000000000000e+00  7.8678419557047363e-14 1.2071593204709106e-12 0.0000000000000000e+00  8.1034502874818414e-14 -5.2992227607765067e-13 0.0000000000000000e+00  -1.7622929117301688e-10 -5.1225026424759414e-10 0.0000000000000000e+00  -4.5377265084077687e-10 -5.3064518752691660e-10 0.0000000000000000e+00  -7.2160263523598111e-10 -4.9717349050745771e-10 0.0000000000000000e+00  -9.6640222792648041e-10 -4.4673531617904113e-10 0.0000000000000000e+00  -1.1809740449770588e-09 -3.8502746895537776e-10 0.0000000000