<?xml version="1.0"?>
<VTKFile type="UnstructuredGrid"  version="0.1"  >
<UnstructuredGrid>
<Piece  NumberOfPoints="651" NumberOfCells="1200">
<Points>
<DataArray  type="Float64"  NumberOfComponents="3"  format="ascii">0 0 0  50000 0 0  100000 0 0  150000 0 0  200000 0 0  250000 0 0  300000 0 0  350000 0 0  400000 0 0  450000 0 0  500000 0 0  550000 0 0  600000 0 0  650000 0 0  700000 0 0  750000 0 0  800000 0 0  850000 0 0  900000 0 0  950000 0 0  1000000 0 0  0 50000 0  50000 50000 0  100000 50000 0  150000 50000 0  200000 50000 0  250000 50000 0  300000 50000 0  350000 50000 0  400000 50000 0  450000 50000 0  500000 50000 0  550000 50000 0  600000 50000 0  650000 50000 0  700000 50000 0  750000 50000 0  800000 50000 0  850000 50000 0  900000 50000 0  950000 50000 0  1000000 50000 0  0 100000 0  50000 100000 0  100000 100000 0  150000 100000 0  200000 100000 0  250000 100000 0  300000 100000 0  350000 100000 0  400000 100000 0  450000 100000 0  500000 100000 0  550000 100000 0  600000 100000 0  650000 100000 0  700000 100000 0  750000 100000 0  800000 100000 0  850000 100000 0  900000 100000 0  950000 100000 0  1000000 100000 0  0 150000 0  50000 150000 0  100000 150000 0  150000 150000 0  200000 150000 0  250000 150000 0  300000 150000 0  350000 150000 0  400000 150000 0  450000 150000 0  500000 150000 0  550000 150000 0  600000 150000 0  650000 150000 0  700000 150000 0  750000 150000 0  800000 150000 0  850000 150000 0  900000 150000 0  950000 150000 0  1000000 150000 0  0 200000 0  50000 200000 0  100000 200000 0  150000 200000 0  200000 200000 0  250000 200000 0  300000 200000 0  350000 200000 0  400000 200000 0  450000 200000 0  500000 200000 0  550000 200000 0  600000 200000 0  650000 200000 0  700000 200000 0  750000 200000 0  800000 200000 0  850000 200000 0  900000 200000 0  950000 200000 0  1000000 200000 0  0 250000 0  50000 250000 0  100000 250000 0  150000 250000 0  200000 250000 0  250000 250000 0  300000 250000 0  350000 250000 0  400000 250000 0  450000 250000 0  500000 250000 0  550000 250000 0  600000 250000 0  650000 250000 0  700000 250000 0  750000 250000 0  800000 250000 0  850000 250000 0  900000 250000 0  950000 250000 0  1000000 250000 0  0 300000 0  50000 300000 0  100000 300000 0  150000 300000 0  200000 300000 0  250000 300000 0  300000 300000 0  350000 300000 0  400000 300000 0  450000 300000 0  500000 300000 0  550000 300000 0  600000 300000 0  650000 300000 0  700000 300000 0  750000 300000 0  800000 300000 0  850000 300000 0  900000 300000 0  950000 300000 0  1000000 300000 0  0 350000 0  50000 350000 0  100000 350000 0  150000 350000 0  200000 350000 0  250000 350000 0  300000 350000 0  350000 350000 0  400000 350000 0  450000 350000 0  500000 350000 0  550000 350000 0  600000 350000 0  650000 350000 0  700000 350000 0  750000 350000 0  800000 350000 0  850000 350000 0  900000 350000 0  950000 350000 0  1000000 350000 0  0 400000 0  50000 400000 0  100000 400000 0  150000 400000 0  200000 400000 0  250000 400000 0  300000 400000 0  350000 400000 0  400000 400000 0  450000 400000 0  500000 400000 0  550000 400000 0  600000 400000 0  650000 400000 0  700000 400000 0  750000 400000 0  800000 400000 0  850000 400000 0  900000 400000 0  950000 400000 0  1000000 400000 0  0 450000 0  50000 450000 0  100000 450000 0  150000 450000 0  200000 450000 0  250000 450000 0  300000 450000 0  350000 450000 0  400000 450000 0  450000 450000 0  500000 450000 0  550000 450000 0  600000 450000 0  650000 450000 0  700000 450000 0  750000 450000 0  800000 450000 0  850000 450000 0  900000 450000 0  950000 450000 0  1000000 450000 0  0 500000 0  50000 500000 0  100000 500000 0  150000 500000 0  200000 500000 0  250000 500000 0  300000 500000 0  350000 500000 0  400000 500000 0  450000 500000 0  500000 500000 0  550000 500000 0  600000 500000 0  650000 500000 0  700000 500000 0  750000 500000 0  800000 500000 0  850000 500000 0  900000 500000 0  950000 500000 0  1000000 500000 0  0 550000 0  50000 550000 0  100000 550000 0  150000 550000 0  200000 550000 0  250000 550000 0  300000 550000 0  350000 550000 0  400000 550000 0  450000 550000 0  500000 550000 0  550000 550000 0  600000 550000 0  650000 550000 0  700000 550000 0  750000 550000 0  800000 550000 0  850000 550000 0  900000 550000 0  950000 550000 0  1000000 550000 0  0 600000 0  50000 600000 0  100000 600000 0  150000 600000 0  200000 600000 0  250000 600000 0  300000 600000 0  350000 600000 0  400000 600000 0  450000 600000 0  500000 600000 0  550000 600000 0  600000 600000 0  650000 600000 0  700000 600000 0  750000 600000 0  800000 600000 0  850000 600000 0  900000 600000 0  950000 600000 0  1000000 600000 0  0 650000 0  50000 650000 0  100000 650000 0  150000 650000 0  200000 650000 0  250000 650000 0  300000 650000 0  350000 650000 0  400000 650000 0  450000 650000 0  500000 650000 0  550000 650000 0  600000 650000 0  650000 650000 0  700000 650000 0  750000 650000 0  800000 650000 0  850000 650000 0  900000 650000 0  950000 650000 0  1000000 650000 0  0 700000 0  50000 700000 0  100000 700000 0  150000 700000 0  200000 700000 0  250000 700000 0  300000 700000 0  350000 700000 0  400000 700000 0  450000 700000 0  500000 700000 0  550000 700000 0  600000 700000 0  650000 700000 0  700000 700000 0  750000 700000 0  800000 700000 0  850000 700000 0  900000 700000 0  950000 700000 0  1000000 700000 0  0 750000 0  50000 750000 0  100000 750000 0  150000 750000 0  200000 750000 0  250000 750000 0  300000 750000 0  350000 750000 0  400000 750000 0  450000 750000 0  500000 750000 0  550000 750000 0  600000 750000 0  650000 750000 0  700000 750000 0  750000 750000 0  800000 750000 0  850000 750000 0  900000 750000 0  950000 750000 0  1000000 750000 0  0 800000 0  50000 800000 0  100000 800000 0  150000 800000 0  200000 800000 0  250000 800000 0  300000 800000 0  350000 800000 0  400000 800000 0  450000 800000 0  500000 800000 0  550000 800000 0  600000 800000 0  650000 800000 0  700000 800000 0  750000 800000 0  800000 800000 0  850000 800000 0  900000 800000 0  950000 800000 0  1000000 800000 0  0 850000 0  50000 850000 0  100000 850000 0  150000 850000 0  200000 850000 0  250000 850000 0  300000 850000 0  350000 850000 0  400000 850000 0  450000 850000 0  500000 850000 0  550000 850000 0  600000 850000 0  650000 850000 0  700000 850000 0  750000 850000 0  800000 850000 0  850000 850000 0  900000 850000 0  950000 850000 0  1000000 850000 0  0 900000 0  50000 900000 0  100000 900000 0  150000 900000 0  200000 900000 0  250000 900000 0  300000 900000 0  350000 900000 0  400000 900000 0  450000 900000 0  500000 900000 0  550000 900000 0  600000 900000 0  650000 900000 0  700000 900000 0  750000 900000 0  800000 900000 0  850000 900000 0  900000 900000 0  950000 900000 0  1000000 900000 0  0 950000 0  50000 950000 0  100000 950000 0  150000 950000 0  200000 950000 0  250000 950000 0  300000 950000 0  350000 950000 0  400000 950000 0  450000 950000 0  500000 950000 0  550000 950000 0  600000 950000 0  650000 950000 0  700000 950000 0  750000 950000 0  800000 950000 0  850000 950000 0  900000 950000 0  950000 950000 0  1000000 950000 0  0 1000000 0  50000 1000000 0  100000 1000000 0  150000 1000000 0  200000 1000000 0  250000 1000000 0  300000 1000000 0  350000 1000000 0  400000 1000000 0  450000 1000000 0  500000 1000000 0  550000 1000000 0  600000 1000000 0  650000 1000000 0  700000 1000000 0  750000 1000000 0  800000 1000000 0  850000 1000000 0  900000 1000000 0  950000 1000000 0  1000000 1000000 0  0 1050000 0  50000 1050000 0  100000 1050000 0  150000 1050000 0  200000 1050000 0  250000 1050000 0  300000 1050000 0  350000 1050000 0  400000 1050000 0  450000 1050000 0  500000 1050000 0  550000 1050000 0  600000 1050000 0  650000 1050000 0  700000 1050000 0  750000 1050000 0  800000 1050000 0  850000 1050000 0  900000 1050000 0  950000 1050000 0  1000000 1050000 0  0 1100000 0  50000 1100000 0  100000 1100000 0  150000 1100000 0  200000 1100000 0  250000 1100000 0  300000 1100000 0  350000 1100000 0  400000 1100000 0  450000 1100000 0  500000 1100000 0  550000 1100000 0  600000 1100000 0  650000 1100000 0  700000 1100000 0  750000 1100000 0  800000 1100000 0  850000 1100000 0  900000 1100000 0  950000 1100000 0  1000000 1100000 0  0 1150000 0  50000 1150000 0  100000 1150000 0  150000 1150000 0  200000 1150000 0  250000 1150000 0  300000 1150000 0  350000 1150000 0  400000 1150000 0  450000 1150000 0  500000 1150000 0  550000 1150000 0  600000 1150000 0  650000 1150000 0  700000 1150000 0  750000 1150000 0  800000 1150000 0  850000 1150000 0  900000 1150000 0  950000 1150000 0  1000000 1150000 0  0 1200000 0  50000 1200000 0  100000 1200000 0  150000 1200000 0  200000 1200000 0  250000 1200000 0  300000 1200000 0  350000 1200000 0  400000 1200000 0  450000 1200000 0  500000 1200000 0  550000 1200000 0  600000 1200000 0  650000 1200000 0  700000 1200000 0  750000 1200000 0  800000 1200000 0  850000 1200000 0  900000 1200000 0  950000 1200000 0  1000000 1200000 0  0 1250000 0  50000 1250000 0  100000 1250000 0  150000 1250000 0  200000 1250000 0  250000 1250000 0  300000 1250000 0  350000 1250000 0  400000 1250000 0  450000 1250000 0  500000 1250000 0  550000 1250000 0  600000 1250000 0  650000 1250000 0  700000 1250000 0  750000 1250000 0  800000 1250000 0  850000 1250000 0  900000 1250000 0  950000 1250000 0  1000000 1250000 0  0 1300000 0  50000 1300000 0  100000 1300000 0  150000 1300000 0  200000 1300000 0  250000 1300000 0  300000 1300000 0  350000 1300000 0  400000 1300000 0  450000 1300000 0  500000 1300000 0  550000 1300000 0  600000 1300000 0  650000 1300000 0  700000 1300000 0  750000 1300000 0  800000 1300000 0  850000 1300000 0  900000 1300000 0  950000 1300000 0  1000000 1300000 0  0 1350000 0  50000 1350000 0  100000 1350000 0  150000 1350000 0  200000 1350000 0  250000 1350000 0  300000 1350000 0  350000 1350000 0  400000 1350000 0  450000 1350000 0  500000 1350000 0  550000 1350000 0  600000 1350000 0  650000 1350000 0  700000 135
[...]
<PointData  Vectors="f_25021"> 
<DataArray  type="Float64"  Name="f_25021"  NumberOfComponents="3" format="ascii">-1.0514961078274311e-10 -6.9138947669779968e-11 0.0000000000000000e+00  7.9927030703916607e-08 -6.1191571979972678e-11 0.0000000000000000e+00  7.9993149709518080e-08 7.2114071174447270e-13 0.0000000000000000e+00  7.9983678145116219e-08 9.1690834480382127e-13 0.0000000000000000e+00  7.9991033557530061e-08 5.9633011216043772e-14 0.0000000000000000e+00  7.9992531915480766e-08 3.3674358164671291e-13 0.0000000000000000e+00  7.9993576963995391e-08 1.6979349707900678e-13 0.0000000000000000e+00  7.9994234887423644e-08 1.1803239052020191e-13 0.0000000000000000e+00  7.9994595566822295e-08 7.6222298669485997e-14 0.0000000000000000e+00  7.9994769928055108e-08 4.2990386173967800e-14 0.0000000000000000e+00  7.9994781834303070e-08 1.6211429854282907e-14 0.0000000000000000e+00  7.9994633379076918e-08 -6.8106961431372067e-15 0.0000000000000000e+00  7.9994298073229073e-08 -3.0144166704548789e-14 0.0000000000000000e+00  7.9993724349690326e-08 -5.5804166815430561e-14 0.0000000000000000e+00  7.9992672386263483e-08 1.3482960868883503e-14 0.0000000000000000e+00  7.9991201372179004e-08 -3.4925592043725234e-13 0.0000000000000000e+00  7.9988268198570034e-08 1.1079849787058735e-12 0.0000000000000000e+00  7.9972927037240595e-08 5.5295305110828547e-12 0.0000000000000000e+00  7.9993419994133511e-08 -3.0763508544618612e-11 0.0000000000000000e+00  7.9560985354655241e-08 3.9822420337413144e-10 0.0000000000000000e+00  -5.7445815283022052e-10 5.0803755635354376e-10 0.0000000000000000e+00  -8.2546012426320836e-11 -6.4826915682343258e-11 0.0000000000000000e+00  -1.3025647058997670e-08 -1.6411377870204931e-08 0.0000000000000000e+00  -1.2182234056022335e-09 -5.0954390008155583e-09 0.0000000000000000e+00  3.5575545964418108e-10 -2.3827984112906204e-09 0.0000000000000000e+00  3.3139569154471193e-09 -1.2106255033634975e-09 0.0000000000000000e+00  4.4658639632407542e-09 -6.9462329349938820e-10 0.0000000000000000e+00  5.2530404306548714e-09 -4.4107177306764447e-10 0.0000000000000000e+00  5.7464494525651094e-09 -2.8273301780017347e-10 0.0000000000000000e+00  6.0480532970734683e-09 -1.7569354218160986e-10 0.0000000000000000e+00  6.2132545294128816e-09 -9.3716946787795489e-11 0.0000000000000000e+00  6.2654445051563879e-09 -2.2230718805558969e-11 0.0000000000000000e+00  6.2121353817508106e-09 4.9290348265559226e-11 0.0000000000000000e+00  6.0459235118713020e-09 1.3145063531944754e-10 0.0000000000000000e+00  5.7415675763802999e-09 2.3860862516943315e-10 0.0000000000000000e+00  5.2514030343706486e-09 3.9636443974980190e-10 0.0000000000000000e+00  4.4691966618450353e-09 6.5662569365903020e-10 0.0000000000000000e+00  3.1687703125078465e-09 1.1337561755452541e-09 0.0000000000000000e+00  1.3045925008100155e-09 2.3156916287634431e-09 0.0000000000000000e+00  -4.4717619967919583e-09 5.2402990827653721e-09 0.0000000000000000e+00  -9.1992990039294516e-09 1.5544671537369734e-08 0.0000000000000000e+00  -4.2263650924350054e-10 4.0796247283405400e-10 0.0000000000000000e+00  -8.3434685420505158e-12 -1.2225375554582549e-11 0.0000000000000000e+00  -6.1987016727636662e-09 -1.2012305559401322e-08 0.0000000000000000e+00  -8.2043107860157954e-09 -8.1040377756849876e-09 0.0000000000000000e+00  -7.7568836618886183e-09 -4.5659419758426004e-09 0.0000000000000000e+00  -6.2991174569758317e-09 -2.5279168675814343e-09 0.0000000000000000e+00  -5.5764355744965126e-09 -1.5582990753855220e-09 0.0000000000000000e+00  -4.9103695905331091e-09 -9.8605164160830524e-10 0.0000000000000000e+00  -4.4955547533253932e-09 -6.1944873134781274e-10 0.0000000000000000e+00  -4.2245319012956348e-09 -3.6280221071332499e-10 0.0000000000000000e+00  -4.0732341811725641e-09 -1.6179438676282679e-10 0.0000000000000000e+00  -4.0247270264464501e-09 1.5029859034981550e-11 0.0000000000000000e+00  -4.0733529346173079e-09 1.9185482518018124e-10 0.0000000000000000e+00  -4.2244271236018517e-09 3.9278597470760153e-10 0.0000000000000000e+00  -4.4944502977474317e-09 6.4954057550771735e-10 0.0000000000000000e+00  -4.9149228939117488e-09 1.0135655039843035e-09 0.0000000000000000e+00  -5.5369821087704549e-09 1.5813555671287288e-09 0.0000000000000000e+00  -6.3950465346890708e-09 2.5590336870086991e-09 0.0000000000000000e+00  -7.6501503138656768e-09 4.4108660728720345e-09 0.0000000000000000e+00  -8.3452951320118593e-09 8.1296069113653502e-09 0.0000000000000000e+00  -5.2049836445425385e-09 1.4791259298052932e-08 0.0000000000000000e+00  1.2057033606439370e-11 1.9674213876541518e-12 0.0000000000000000e+00  7.5100118850887803e-13 -1.3537877822551868e-11 0.0000000000000000e+00  -2.5939623735118119e-09 -9.1950613985531605e-09 0.0000000000000000e+00  -5.0747903547692216e-09 -7.2940432050773921e-09 0.0000000000000000e+00  -5.5700561211725349e-09 -4.7749150074586511e-09 0.0000000000000000e+00  -5.4855935511431915e-09 -3.1817115047736215e-09 0.0000000000000000e+00  -5.1797444594153067e-09 -2.1227507274018837e-09 0.0000000000000000e+00  -4.8219191976196695e-09 -1.4073129458309835e-09 0.0000000000000000e+00  -4.5683160420490620e-09 -9.1881323661362019e-10 0.0000000000000000e+00  -4.3817214925916419e-09 -5.5609483004897964e-10 0.0000000000000000e+00  -4.2740271359058783e-09 -2.6310441156618284e-10 0.0000000000000000e+00  -4.2384026450158073e-09 -1.3234703117737701e-12 0.0000000000000000e+00  -4.2733521851876439e-09 2.6044627483488665e-10 0.0000000000000000e+00  -4.3804649394850963e-09 5.5321442309218532e-10 0.0000000000000000e+00  -4.5637868549179993e-09 9.1558496589440201e-10 0.0000000000000000e+00  -4.8264521512954813e-09 1.4041846664645605e-09 0.0000000000000000e+00  -5.1569361847499392e-09 2.1107212818371043e-09 0.0000000000000000e+00  -5.5066327921032861e-09 3.1878390407949076e-09 0.0000000000000000e+00  -5.6303577025408934e-09 4.8573691292980212e-09 0.0000000000000000e+00  -4.9019458345803582e-09 7.3329765701790952e-09 0.0000000000000000e+00  -2.5679985249301237e-09 8.6138102647393793e-09 0.0000000000000000e+00  -1.6330060665426803e-12 2.3157370871608940e-11 0.0000000000000000e+00  2.3600763390508469e-13 -8.3604345439335280e-12 0.0000000000000000e+00  -1.3929968593319633e-09 -6.3429362510097183e-09 0.0000000000000000e+00  -3.0556496054363420e-09 -5.7372095862164787e-09 0.0000000000000000e+00  -3.9476212647531675e-09 -4.4605572462417079e-09 0.0000000000000000e+00  -4.3115654165267167e-09 -3.2594414140895097e-09 0.0000000000000000e+00  -4.3239169252177246e-09 -2.3050732546701199e-09 0.0000000000000000e+00  -4.2422486458810441e-09 -1.6061517642948678e-09 0.0000000000000000e+00  -4.1369945223349643e-09 -1.0802689250479474e-09 0.0000000000000000e+00  -4.0437294535585635e-09 -6.6507530812275179e-10 0.0000000000000000e+00  -3.9852554217874933e-09 -3.1698871764382188e-10 0.0000000000000000e+00  -3.9648673284947684e-09 1.9741940955973938e-13 0.0000000000000000e+00  -3.9846536645937980e-09 3.1733606255708492e-10 0.0000000000000000e+00  -4.0431027388961622e-09 6.6524516500505110e-10 0.0000000000000000e+00  -4.1343451521314244e-09 1.0796610395245662e-09 0.0000000000000000e+00  -4.2422653266272022e-09 1.6064075869762899e-09 0.0000000000000000e+00  -4.3278532848680727e-09 2.3055472869851908e-09 0.0000000000000000e+00  -4.2976638226954870e-09 3.2460128734089087e-09 0.0000000000000000e+00  -3.9634186073528977e-09 4.4715569492191850e-09 0.0000000000000000e+00  -3.0357844964830189e-09 5.7939964808698256e-09 0.0000000000000000e+00  -1.3530973113690032e-09 6.3813508843592450e-09 0.0000000000000000e+00  -1.7512649466592221e-12 1.1704447673223294e-11 0.0000000000000000e+00  3.5781032756034089e-13 -5.9827160715641292e-12 0.0000000000000000e+00  -8.6529743669913015e-10 -4.8063830286166175e-09 0.0000000000000000e+00  -2.0581500145674947e-09 -4.6565486544899008e-09 0.0000000000000000e+00  -2.8943484622377446e-09 -3.8522428523785107e-09 0.0000000000000000e+00  -3.3618973816175244e-09 -2.9942966908694415e-09 0.0000000000000000e+00  -3.5804144443202572e-09 -2.2520411716695723e-09 0.0000000000000000e+00  -3.6636381295929007e-09 -1.6379663852970935e-09 0.0000000000000000e+00  -3.6739848213867800e-09 -1.1324995998975390e-09 0.0000000000000000e+00  -3.6608683915620554e-09 -7.1069647980584982e-10 0.0000000000000000e+00  -3.6460355798959797e-09 -3.4241810558250548e-10 0.0000000000000000e+00  -3.6397927676414368e-09 1.0353257263670332e-13 0.0000000000000000e+00  -3.6456650864781219e-09 3.4257026146790661e-10 0.0000000000000000e+00  -3.6604557220254402e-09 7.1080718178698888e-10 0.0000000000000000e+00  -3.6734848389645842e-09 1.1323912818184426e-09 0.0000000000000000e+00  -3.6620212854747574e-09 1.6372557196021871e-09 0.0000000000000000e+00  -3.5827385414047153e-09 2.2544618704854574e-09 0.0000000000000000e+00  -3.3609271019807425e-09 2.9996469075268120e-09 0.0000000000000000e+00  -2.8867239500388566e-09 3.8388389386932389e-09 0.0000000000000000e+00  -2.0502473084686780e-09 4.6375977237882659e-09 0.0000000000000000e+00  -8.6596117836251032e-10 4.8163304685434506e-09 0.0000000000000000e+00  4.3972982425198834e-13 7.5192972285383274e-12 0.0000000000000000e+00  2.5700229311438685e-13 -4.5748337117247241e-12 0.0000000000000000e+00  -6.0632652578325550e-10 -3.7438654541595882e-09 0.0000000000000000e+00  -1.4884667284695647e-09 -3.7168501672306760e-09 0.0000000000000000e+00  -2.1891383835604302e-09 -3.2189795463927793e-09 0.0000000000000000e+00  -2.6717215569230555e-09 -2.6380590750914729e-09 0.0000000000000000e+00  -2.9716713134755939e-09 -2.0699335933574762e-09 0.0000000000000000e+00  -3.1417335677621328e-09 -1.5542127272361134e-09 0.0000000000000000e+00  -3.2313369614605580e-09 -1.1019888154735092e-09 0.0000000000000000e+00  -3.2754217187991596e-09 -7.0364642360757724e-10 0.0000000000000000e+00  -3.2941707551951685e-09 -3.4240751799865225e-10 0.0000000000000000e+00  -3.2992085396933918e-09 -6.0576696542051175e-14 0.0000000000000000e+00  -3.2940093292778018e-09 3.4225126534527634e-10 0.0000000000000000e+00  -3.2750840348741251e-09 7.0342767177172976e-10 0.0000000000000000e+00  -3.2312462562968401e-09 1.1018935762219787e-09 0.0000000000000000e+00  -3.1412349516795475e-09 1.5538628059700341e-09 0.0000000000000000e+00  -2.9707067503993125e-09 2.0685066468584455e-09 0.0000000000000000e+00  -2.6711908738680935e-09 2.6375251304209370e-09 0.0000000000000000e+00  -2.1877932408696033e-09 3.2201879647991975e-09 0.0000000000000000e+00  -1.4855681425677813e-09 3.7186556793996197e-09 0.0000000000000000e+00  -6.0667808267064706e-10 3.7456091851160020e-09 0.0000000000000000e+00  8.4572498551510447e-14 5.7761214568895375e-12 0.0000000000000000e+00  2.0148406945692162e-13 -3.5401556329862721e-12 0.0000000000000000e+00  -4.5353396651179672e-10 -2.9598291500597976e-09 0.0000000000000000e+00  -1.1353743602654484e-09 -2.9929611859584113e-09 0.0000000000000000e+00  -1.7203540805719312e-09 -2.6691707137201462e-09 0.0000000000000000e+00  -2.1689759566809377e-09 -2.2561061532196905e-09 0.0000000000000000e+00  -2.4863447242164964e-09 -1.8228466092701231e-09 0.0000000000000000e+00  -2.6983265287628664e-09 -1.4053416052036490e-09 0.0000000000000000e+00  -2.8329253008596605e-09 -1.0172633765491580e-09 0.0000000000000000e+00  -2.9129448874419966e-09 -6.5883846281249963e-10 0.0000000000000000e+00  -2.9546792763652489e-09 -3.2334991395236387e-10 0.0000000000000000e+00  -2.9675799117766214e-09 -1.1117884230657483e-13 0.0000000000000000e+00  -2.9546048243562252e-09 3.2312153924023301e-10 0.0000000000000000e+00  -2.9127545946367959e-09 6.5855975408457782e-10 0.0000000000000000e+00  -2.8326841402706262e-09 1.0169291853162149e-09 0.0000000000000000e+00  -2.6981087081188463e-09 1.4051330074709634e-09 0.0000000000000000e+00  -2.4857740726981171e-09 1.8222539214848865e-09 0.0000000000000000e+00  -2.1679211493380450e-09 2.2537757350805208e-09 0.0000000000000000e+00  -1.7198980486176698e-09 2.6654655224044046e-09 0.0000000000000000e+00  -1.1353482871249965e-09 2.9937282273671759e-09 0.0000000000000000e+00  -4.5424913634838818e-10 2.9657861082773656e-09 0.0000000000000000e+00  1.3722731538017501e-13 4.3551215145433883e-12 0.0000000000000000e+00  1.6473272770923961e-13 -2.7739973435261370e-12 0.0000000000000000e+00  -3.5675652075054783e-10 -2.3554866938875446e-09 0.0000000000000000e+00  -9.0435913320082596e-10 -2.4070389006830817e-09 0.0000000000000000e+00  -1.3957614233996181e-09 -2.1846977160252585e-09 0.0000000000000000e+00  -1.7981740640304074e-09 -1.8869724653666013e-09 0.0000000000000000e+00  -2.1070399785212746e-09 -1.5589718937032142e-09 0.0000000000000000e+00  -2.3321244454399975e-09 -1.2257895609406471e-09 0.0000000000000000e+00  -2.4875995782042783e-09 -9.0130411830941698e-10 0.0000000000000000e+00  -2.5875922635286726e-09 -5.9050186545242138e-10 0.0000000000000000e+00  -2.6431042325025164e-09 -2.9188049116004454e-10 0.0000000000000000e+00  -2.6608374605468048e-09 -1.6139213801894679e-13 0.0000000000000000e+00  -2.6430454928550274e-09 2.9155192865262505e-10 0.0000000000000000e+00  -2.5874804800884532e-09 5.9014840666884506e-10 0.0000000000000000e+00  -2.4873954752946237e-09 9.0084863785945384e-10 0.0000000000000000e+00  -2.3318358345282170e-09 1.2251346088042920e-09 0.0000000000000000e+00  -2.1067404051873636e-09 1.5581162564076819e-09 0.0000000000000000e+00  -1.7978052784974488e-09 1.8856856631456823e-09 0.0000000000000000e+00  -1.3957788056945605e-09 2.1827730646533892e-09 0.0000000000000000e+00  -9.0471052454295793e-10 2.4083586621442573e-09 0.0000000000000000e+00  -3.5757024033620613e-10 2.3599427583006545e-09 0.0000000000000000e+00  1.2574586484670443e-13 3.3972027070481233e-12 0.0000000000000000e+00  1.3764063197659602e-13 -2.1652275737816303e-12 0.0000000000000000e+00  -2.9182778708421796e-10 -1.8677583866303522e-09 0.0000000000000000e+00  -7.4557951357500328e-10 -1.9216913224635965e-09 0.0000000000000000e+00  -1.1647346281732838e-09 -1.7652106297222556e-09 0.0000000000000000e+00  -1.5230285528586944e-09 -1.5475559043825271e-09 0.0000000000000000e+00  -1.8125608578263297e-09 -1.2983983491845154e-09 0.0000000000000000e+00  -2.0351842773785104e-09 -1.0355276114534344e-09 0.0000000000000000e+00  -2.1971483233551587e-09 -7.7062309797652579e-10 0.0000000000000000e+00  -2.3060884224196843e-09 -5.0946256376736944e-10 0.0000000000000000e+00  -2.3685568179351986e-09 -2.5323483792364118e-10 0.0000000000000000e+00  -2.3888653607474502e-09 -1.9448463220903056e-13 0.0000000000000000e+00  -2.3685095091222950e-09 2.5283288232223301e-10 0.0000000000000000e+00  -2.3059972384513560e-09 5.0902416990809065e-10 0.0000000000000000e+00  -2.1970122511018976e-09 7.7011195686860365e-10 0.0000000000000000e+00  -2.0349904781340223e-09 1.0348465328830915e-09 0.0000000000000000e+00  -1.8123824136203624e-09 1.2974221810220967e-09 0.0000000000000000e+00  -1.5229485677197787e-09 1.5462537356151292e-09 0.0000000000000000e+00  -1.1650291307047623e-09 1.7638419171610469e-09 0.0000000000000000e+00  -7.4605821190010965e-10 1.9233241981413388e-09 0.0000000000000000e+00  -2.9248517939326599e-10 1.8716618001389484e-09 0.0000000000000000e+00  1.1108441546498512e-13 2.6611990705199982e-12 0.0000000000000000e+00  1.1853905563405892e-13 -1.6633720702567935e-12 0.0000000000000000e+00  -2.4664880933659954e-10 -1.4609368244363068e-09 0.0000000000000000e+00  -6.3349142629753173e-10 -1.5100244787206835e-09 0.0000000000000000e+00  -9.9772794937543955e-10 -1.3982254768240456e-09 0.0000000000000000e+00  -1.3179646075623535e-09 -1.2382743641706789e-09 0.0000000000000000e+00  -1.5856912794983911e-09 -1.0502658134029504e-09 0.0000000000000000e+00  -1.7990266394007069e-09 -8.4639323295367598e-10 0.0000000000000000e+00  -1.9595690308810455e-09 -6.3551922514301317e-10 0.0000000000000000e+00  -2.0706584140772333e-09 -4.2299712350323359e-10 0.0000000000000000e+00  -2.1356818083909681e-09 -2.1116292697407341e-10 0.0000000000000000e+00  -2.1570572671843157e-09 -2.2140690492048273e-13 0.0000000000000000e+00  -2.1356474863312682e-09 2.1070778868541918e-10 0.0000000000000000e+00  -2.0705898628601835e-09 4.2250094879854713e-10 0.0000000000000000e+00  -1.9594759546823687e-09 6.3494782868265285e-10 0.0000000000000000e+00  -1.7989256808193595e-09 8.4570603352868721e-10 0.0000000000000000e+00  -1.5856421438641727e-09 1.0494155981636809e-09 0.0000000000000000e+00  -1.3180216154025059e-09 1.2372476734605537e-09 0.0000000000000000e+00  -9.9806040130695022e-10 1.3972399722719668e-09 0.0000000000000000e+00  -6.3394185750087757e-10 1.5116563284628938e-09 0.0000000000000000e+00  -2.4717599920653515e-10 1.4643569989339705e-09 0.0000000000000000e+00  1.0108445888596503e-13 2.0732217212553430e-12 0.0000000000000000e+00  1.0466857024506195e-13 -1.2350578712505169e-12 0.0000000000000000e+00  -2.1480436013707244e-10 -1.1111891824896950e-09 0.0000000000000000e+00  -5.5366402937034411e-10 -1.1520831458972613e-09 0.0000000000000000e+00  -8.7678909532987283e-10 -1.0726315802920225e-09 0.0000000000000000e+00  -1.1662642647227062e-09 -9.5654198454344422e-10 0.0000000000000000e+00  -1.4138542102711868e-09 -8.1749414973981945e-10 0.0000000000000000e+00  -1.6159133933871473e-09 -6.6367813821717092e-10 0.0000000000000000e+00  -1.7714352818075788e-09 -5.0153788816985092e-10 0.0000000000000000e+00  -1.8811087850104897e-09 -3.3548627574703317e-10 0.0000000000000000e+00  -1.9461885095689877e-09 -1.6802703072096927e-10 0.0000000000000000e+00  -1.9677388229480607e-09 -2.4184586033931342e-13 0.0000000000000000e+00  -1.9461646605592972e-09 1.6753278418686397e-10 0.0000000000000000e+00  -1.8810641630315210e-09 3.3495853280794908e-10 0.0000000000000000e+00  -1.7713807745334670e-09 5.0095023924627804e-10 0.0000000000000000e+00  -1.6158701829953210e-09 6.6300633518595328e-10 0.0000000000000000e+00  -1.4138734101798728e-09 8.1673085429335337e-10 0.0000000000000000e+00  -1.1663782205533956e-09 9.5571273515673510e-10 0.0000000000000000e+00  -8.7709038916320827e-10 1.0719187111275917e-09 0.0000000000000000e+00  -5.5403323368788303e-10 1.1536718097543824e-09 0.0000000000000000e+00  -2.1520859895218891e-10 1.1142176876079535e-09 0.0000000000000000e+00  9.2721957780252100e-14 1.5859352784409582e-12 0.0000000000000000e+00  9.4692526396456548e-14 -8.5710015443559775e-13 0.0000000000000000e+00  -1.9262860547100734e-10 -8.0170578101040415e-10 0.0000000000000000e+00  -4.9767055331350021e-10 -8.3299053392374718e-10 0.0000000000000000e+00  -7.9098752103435512e-10 -7.7849075810177088e-10 0.0000000000000000e+00  -1.0570339417889681e-09 -6.9748760750389734e-10 0.0000000000000000e+00  -1.2880440339635085e-09 -5.9918308510793806e-10 0.0000000000000000e+00  -1.4795831834406148e-09 -4.8892271670690860e-10 0.0000000000000000e+00  -1.6292353166393307e-09 -3.7114522224647847e-10 0.0000000000000000e+00  -1.7361092015920765e-09 -2.4915009518204004e-10 0.0000000000000000e+00  -1.8001067084786876e-09 -1.2509594092796564e-10 0.0000000000000000e+00  -1.8214016320133354e-09 -2.5555803703613328e-13 0.0000000000000000e+00  -1.8000914955148658e-09 1.2457616656341750e-10 0.0000000000000000e+00  -1.7360830041351801e-09 2.4860470285073012e-10 0.0000000000000000e+00  -1.6292088920544195e-09 3.7055884172885961e-10 0.0000000000000000e+00  -1.4795740615346367e-09 4.8828565231761401e-10 0.0000000000000000e+00  -1.2880881401724196e-09 5.9850212645245172e-10 0.0000000000000000e+00  -1.0571495854169928e-09 6.9679623042370628e-10 0.0000000000000000e+00  -7.9122598489708764e-10 7.7794570246405427e-10 0.0000000000000000e+00  -4.9794754332989799e-10 8.3451979603387707e-10 0.0000000000000000e+00  -1.9292047790645316e-10 8.0445344882873832e-10 0.0000000000000000e+00  8.6712937514672568e-14 1.1675388150132447e-12 0.0000000000000000e+00  8.7767405744752746e-14 -5.1229831587044857e-13 0.0000000000000000e+00  -1.7798446241855682e-10 -5.1978824446612177e-10 0.0000000000000000e+00  -4.6050526659587748e-10 -5.4092237372182776e-10 0.0000000000000000e+00  -7.3359964210912039e-10 -5.0693778360473611e-10 0.0000000000000000e+00  -9.8324240739037544e-10 -4.5556623282545093e-10 0.0000000000000000e+00  -1.2020870695356211e-09 -3.9267226226566443e-10 0.00000000000