<?xml version="1.0"?>
<VTKFile type="UnstructuredGrid"  version="0.1"  >
<UnstructuredGrid>
<Piece  NumberOfPoints="651" NumberOfCells="1200">
<Points>
<DataArray  type="Float64"  NumberOfComponents="3"  format="ascii">0 0 0  50000 0 0  100000 0 0  150000 0 0  200000 0 0  250000 0 0  300000 0 0  350000 0 0  400000 0 0  450000 0 0  500000 0 0  550000 0 0  600000 0 0  650000 0 0  700000 0 0  750000 0 0  800000 0 0  850000 0 0  900000 0 0  950000 0 0  1000000 0 0  0 50000 0  50000 50000 0  100000 50000 0  150000 50000 0  200000 50000 0  250000 50000 0  300000 50000 0  350000 50000 0  400000 50000 0  450000 50000 0  500000 50000 0  550000 50000 0  600000 50000 0  650000 50000 0  700000 50000 0  750000 50000 0  800000 50000 0  850000 50000 0  900000 50000 0  950000 50000 0  1000000 50000 0  0 100000 0  50000 100000 0  100000 100000 0  150000 100000 0  200000 100000 0  250000 100000 0  300000 100000 0  350000 100000 0  400000 100000 0  450000 100000 0  500000 100000 0  550000 100000 0  600000 100000 0  650000 100000 0  700000 100000 0  750000 100000 0  800000 100000 0  850000 100000 0  900000 100000 0  950000 100000 0  1000000 100000 0  0 150000 0  50000 150000 0  100000 150000 0  150000 150000 0  200000 150000 0  250000 150000 0  300000 150000 0  350000 150000 0  400000 150000 0  450000 150000 0  500000 150000 0  550000 150000 0  600000 150000 0  650000 150000 0  700000 150000 0  750000 150000 0  800000 150000 0  850000 150000 0  900000 150000 0  950000 150000 0  1000000 150000 0  0 200000 0  50000 200000 0  100000 200000 0  150000 200000 0  200000 200000 0  250000 200000 0  300000 200000 0  350000 200000 0  400000 200000 0  450000 200000 0  500000 200000 0  550000 200000 0  600000 200000 0  650000 200000 0  700000 200000 0  750000 200000 0  800000 200000 0  850000 200000 0  900000 200000 0  950000 200000 0  1000000 200000 0  0 250000 0  50000 250000 0  100000 250000 0  150000 250000 0  200000 250000 0  250000 250000 0  300000 250000 0  350000 250000 0  400000 250000 0  450000 250000 0  500000 250000 0  550000 250000 0  600000 250000 0  650000 250000 0  700000 250000 0  750000 250000 0  800000 250000 0  850000 250000 0  900000 250000 0  950000 250000 0  1000000 250000 0  0 300000 0  50000 300000 0  100000 300000 0  150000 300000 0  200000 300000 0  250000 300000 0  300000 300000 0  350000 300000 0  400000 300000 0  450000 300000 0  500000 300000 0  550000 300000 0  600000 300000 0  650000 300000 0  700000 300000 0  750000 300000 0  800000 300000 0  850000 300000 0  900000 300000 0  950000 300000 0  1000000 300000 0  0 350000 0  50000 350000 0  100000 350000 0  150000 350000 0  200000 350000 0  250000 350000 0  300000 350000 0  350000 350000 0  400000 350000 0  450000 350000 0  500000 350000 0  550000 350000 0  600000 350000 0  650000 350000 0  700000 350000 0  750000 350000 0  800000 350000 0  850000 350000 0  900000 350000 0  950000 350000 0  1000000 350000 0  0 400000 0  50000 400000 0  100000 400000 0  150000 400000 0  200000 400000 0  250000 400000 0  300000 400000 0  350000 400000 0  400000 400000 0  450000 400000 0  500000 400000 0  550000 400000 0  600000 400000 0  650000 400000 0  700000 400000 0  750000 400000 0  800000 400000 0  850000 400000 0  900000 400000 0  950000 400000 0  1000000 400000 0  0 450000 0  50000 450000 0  100000 450000 0  150000 450000 0  200000 450000 0  250000 450000 0  300000 450000 0  350000 450000 0  400000 450000 0  450000 450000 0  500000 450000 0  550000 450000 0  600000 450000 0  650000 450000 0  700000 450000 0  750000 450000 0  800000 450000 0  850000 450000 0  900000 450000 0  950000 450000 0  1000000 450000 0  0 500000 0  50000 500000 0  100000 500000 0  150000 500000 0  200000 500000 0  250000 500000 0  300000 500000 0  350000 500000 0  400000 500000 0  450000 500000 0  500000 500000 0  550000 500000 0  600000 500000 0  650000 500000 0  700000 500000 0  750000 500000 0  800000 500000 0  850000 500000 0  900000 500000 0  950000 500000 0  1000000 500000 0  0 550000 0  50000 550000 0  100000 550000 0  150000 550000 0  200000 550000 0  250000 550000 0  300000 550000 0  350000 550000 0  400000 550000 0  450000 550000 0  500000 550000 0  550000 550000 0  600000 550000 0  650000 550000 0  700000 550000 0  750000 550000 0  800000 550000 0  850000 550000 0  900000 550000 0  950000 550000 0  1000000 550000 0  0 600000 0  50000 600000 0  100000 600000 0  150000 600000 0  200000 600000 0  250000 600000 0  300000 600000 0  350000 600000 0  400000 600000 0  450000 600000 0  500000 600000 0  550000 600000 0  600000 600000 0  650000 600000 0  700000 600000 0  750000 600000 0  800000 600000 0  850000 600000 0  900000 600000 0  950000 600000 0  1000000 600000 0  0 650000 0  50000 650000 0  100000 650000 0  150000 650000 0  200000 650000 0  250000 650000 0  300000 650000 0  350000 650000 0  400000 650000 0  450000 650000 0  500000 650000 0  550000 650000 0  600000 650000 0  650000 650000 0  700000 650000 0  750000 650000 0  800000 650000 0  850000 650000 0  900000 650000 0  950000 650000 0  1000000 650000 0  0 700000 0  50000 700000 0  100000 700000 0  150000 700000 0  200000 700000 0  250000 700000 0  300000 700000 0  350000 700000 0  400000 700000 0  450000 700000 0  500000 700000 0  550000 700000 0  600000 700000 0  650000 700000 0  700000 700000 0  750000 700000 0  800000 700000 0  850000 700000 0  900000 700000 0  950000 700000 0  1000000 700000 0  0 750000 0  50000 750000 0  100000 750000 0  150000 750000 0  200000 750000 0  250000 750000 0  300000 750000 0  350000 750000 0  400000 750000 0  450000 750000 0  500000 750000 0  550000 750000 0  600000 750000 0  650000 750000 0  700000 750000 0  750000 750000 0  800000 750000 0  850000 750000 0  900000 750000 0  950000 750000 0  1000000 750000 0  0 800000 0  50000 800000 0  100000 800000 0  150000 800000 0  200000 800000 0  250000 800000 0  300000 800000 0  350000 800000 0  400000 800000 0  450000 800000 0  500000 800000 0  550000 800000 0  600000 800000 0  650000 800000 0  700000 800000 0  750000 800000 0  800000 800000 0  850000 800000 0  900000 800000 0  950000 800000 0  1000000 800000 0  0 850000 0  50000 850000 0  100000 850000 0  150000 850000 0  200000 850000 0  250000 850000 0  300000 850000 0  350000 850000 0  400000 850000 0  450000 850000 0  500000 850000 0  550000 850000 0  600000 850000 0  650000 850000 0  700000 850000 0  750000 850000 0  800000 850000 0  850000 850000 0  900000 850000 0  950000 850000 0  1000000 850000 0  0 900000 0  50000 900000 0  100000 900000 0  150000 900000 0  200000 900000 0  250000 900000 0  300000 900000 0  350000 900000 0  400000 900000 0  450000 900000 0  500000 900000 0  550000 900000 0  600000 900000 0  650000 900000 0  700000 900000 0  750000 900000 0  800000 900000 0  850000 900000 0  900000 900000 0  950000 900000 0  1000000 900000 0  0 950000 0  50000 950000 0  100000 950000 0  150000 950000 0  200000 950000 0  250000 950000 0  300000 950000 0  350000 950000 0  400000 950000 0  450000 950000 0  500000 950000 0  550000 950000 0  600000 950000 0  650000 950000 0  700000 950000 0  750000 950000 0  800000 950000 0  850000 950000 0  900000 950000 0  950000 950000 0  1000000 950000 0  0 1000000 0  50000 1000000 0  100000 1000000 0  150000 1000000 0  200000 1000000 0  250000 1000000 0  300000 1000000 0  350000 1000000 0  400000 1000000 0  450000 1000000 0  500000 1000000 0  550000 1000000 0  600000 1000000 0  650000 1000000 0  700000 1000000 0  750000 1000000 0  800000 1000000 0  850000 1000000 0  900000 1000000 0  950000 1000000 0  1000000 1000000 0  0 1050000 0  50000 1050000 0  100000 1050000 0  150000 1050000 0  200000 1050000 0  250000 1050000 0  300000 1050000 0  350000 1050000 0  400000 1050000 0  450000 1050000 0  500000 1050000 0  550000 1050000 0  600000 1050000 0  650000 1050000 0  700000 1050000 0  750000 1050000 0  800000 1050000 0  850000 1050000 0  900000 1050000 0  950000 1050000 0  1000000 1050000 0  0 1100000 0  50000 1100000 0  100000 1100000 0  150000 1100000 0  200000 1100000 0  250000 1100000 0  300000 1100000 0  350000 1100000 0  400000 1100000 0  450000 1100000 0  500000 1100000 0  550000 1100000 0  600000 1100000 0  650000 1100000 0  700000 1100000 0  750000 1100000 0  800000 1100000 0  850000 1100000 0  900000 1100000 0  950000 1100000 0  1000000 1100000 0  0 1150000 0  50000 1150000 0  100000 1150000 0  150000 1150000 0  200000 1150000 0  250000 1150000 0  300000 1150000 0  350000 1150000 0  400000 1150000 0  450000 1150000 0  500000 1150000 0  550000 1150000 0  600000 1150000 0  650000 1150000 0  700000 1150000 0  750000 1150000 0  800000 1150000 0  850000 1150000 0  900000 1150000 0  950000 1150000 0  1000000 1150000 0  0 1200000 0  50000 1200000 0  100000 1200000 0  150000 1200000 0  200000 1200000 0  250000 1200000 0  300000 1200000 0  350000 1200000 0  400000 1200000 0  450000 1200000 0  500000 1200000 0  550000 1200000 0  600000 1200000 0  650000 1200000 0  700000 1200000 0  750000 1200000 0  800000 1200000 0  850000 1200000 0  900000 1200000 0  950000 1200000 0  1000000 1200000 0  0 1250000 0  50000 1250000 0  100000 1250000 0  150000 1250000 0  200000 1250000 0  250000 1250000 0  300000 1250000 0  350000 1250000 0  400000 1250000 0  450000 1250000 0  500000 1250000 0  550000 1250000 0  600000 1250000 0  650000 1250000 0  700000 1250000 0  750000 1250000 0  800000 1250000 0  850000 1250000 0  900000 1250000 0  950000 1250000 0  1000000 1250000 0  0 1300000 0  50000 1300000 0  100000 1300000 0  150000 1300000 0  200000 1300000 0  250000 1300000 0  300000 1300000 0  350000 1300000 0  400000 1300000 0  450000 1300000 0  500000 1300000 0  550000 1300000 0  600000 1300000 0  650000 1300000 0  700000 1300000 0  750000 1300000 0  800000 1300000 0  850000 1300000 0  900000 1300000 0  950000 1300000 0  1000000 1300000 0  0 1350000 0  50000 1350000 0  100000 1350000 0  150000 1350000 0  200000 1350000 0  250000 1350000 0  300000 1350000 0  350000 1350000 0  400000 1350000 0  450000 1350000 0  500000 1350000 0  550000 1350000 0  600000 1350000 0  650000 1350000 0  700000 135
[...]
<PointData  Vectors="f_25021"> 
<DataArray  type="Float64"  Name="f_25021"  NumberOfComponents="3" format="ascii">-1.1412857496743914e-10 -7.8566163691568870e-11 0.0000000000000000e+00  7.9919123314033970e-08 -6.8937119359339182e-11 0.0000000000000000e+00  7.9989101303695390e-08 -1.4433700836813007e-12 0.0000000000000000e+00  7.9979510223009350e-08 -5.0805077501313074e-14 0.0000000000000000e+00  7.9987743820341055e-08 -4.8712799522947697e-13 0.0000000000000000e+00  7.9989727850744916e-08 4.2990449455381471e-14 0.0000000000000000e+00  7.9991058135353155e-08 -5.7940708639880395e-15 0.0000000000000000e+00  7.9991914843894900e-08 9.6637842871966868e-15 0.0000000000000000e+00  7.9992391761803560e-08 1.7661938832252031e-14 0.0000000000000000e+00  7.9992622011562634e-08 2.3175413434835344e-14 0.0000000000000000e+00  7.9992638207518100e-08 3.2491877899916477e-14 0.0000000000000000e+00  7.9992442111077010e-08 4.8397888752606621e-14 0.0000000000000000e+00  7.9992002062105488e-08 7.2187794776393671e-14 0.0000000000000000e+00  7.9991249611977885e-08 1.1703320058592636e-13 0.0000000000000000e+00  7.9989919384877902e-08 2.9024461858854940e-13 0.0000000000000000e+00  7.9988032480607220e-08 9.7885007333615622e-14 0.0000000000000000e+00  7.9984484650079740e-08 1.9873668539174353e-12 0.0000000000000000e+00  7.9967826558219457e-08 7.5477901149927808e-12 0.0000000000000000e+00  7.9990199871304727e-08 -2.8852094215643565e-11 0.0000000000000000e+00  7.9530791722692596e-08 4.3023168717483162e-10 0.0000000000000000e+00  -6.1143763985870695e-10 5.5082423300632144e-10 0.0000000000000000e+00  -9.0143564516424018e-11 -7.2753016829619661e-11 0.0000000000000000e+00  -1.4405382567798888e-08 -1.3189823564451190e-08 0.0000000000000000e+00  -4.5702528210138519e-09 -4.1682798421632888e-09 0.0000000000000000e+00  -3.7944905174604691e-09 -1.9191214621726360e-09 0.0000000000000000e+00  -1.3596739190881643e-09 -1.0332247734177108e-09 0.0000000000000000e+00  -4.2842750307638393e-10 -5.9665978319801688e-10 0.0000000000000000e+00  2.0935740128044034e-10 -3.8189904696015633e-10 0.0000000000000000e+00  6.1506049281061347e-10 -2.4689326073410688e-10 0.0000000000000000e+00  8.6344945153721454e-10 -1.5420569142820313e-10 0.0000000000000000e+00  9.9952873355988249e-10 -8.2894004886176305e-11 0.0000000000000000e+00  1.0424528506019926e-09 -2.0480111514154194e-11 0.0000000000000000e+00  9.9812433415380399e-10 4.2036949899039641e-11 0.0000000000000000e+00  8.6048180397530839e-10 1.1370085512663362e-10 0.0000000000000000e+00  6.0941711883973531e-10 2.0680235602610674e-10 0.0000000000000000e+00  2.0680042458553617e-10 3.4274814410198604e-10 0.0000000000000000e+00  -4.3447132833857360e-10 5.6338748448114829e-10 0.0000000000000000e+00  -1.4862265104707308e-09 9.6591704391485658e-10 0.0000000000000000e+00  -2.9250010933845106e-09 1.9126271819170830e-09 0.0000000000000000e+00  -7.6886541679357787e-09 4.1544209463841558e-09 0.0000000000000000e+00  -1.0455986438160102e-08 1.2508615221881517e-08 0.0000000000000000e+00  -4.5233528126606701e-10 4.4100055631475077e-10 0.0000000000000000e+00  -1.0528491354756905e-11 -1.5881651219995822e-11 0.0000000000000000e+00  -4.8782949895249996e-09 -9.3526155585298502e-09 0.0000000000000000e+00  -6.3496231001564054e-09 -6.4908656507030169e-09 0.0000000000000000e+00  -6.1201533783748903e-09 -3.6467341657519760e-09 0.0000000000000000e+00  -4.9527481513742619e-09 -2.0514352855066478e-09 0.0000000000000000e+00  -4.4099930705401996e-09 -1.2726868708298296e-09 0.0000000000000000e+00  -3.8955726923959619e-09 -8.1046202359551984e-10 0.0000000000000000e+00  -3.5682443037409378e-09 -5.1086387370761035e-10 0.0000000000000000e+00  -3.3557737626774729e-09 -2.9952049296339282e-10 0.0000000000000000e+00  -3.2363842713471779e-09 -1.3326629802238588e-10 0.0000000000000000e+00  -3.1978774245703534e-09 1.3401491365850480e-11 0.0000000000000000e+00  -3.2359784901592405e-09 1.6005751565780169e-10 0.0000000000000000e+00  -3.3545955765279794e-09 3.2624696982210445e-10 0.0000000000000000e+00  -3.5661332384422770e-09 5.3746957466670357e-10 0.0000000000000000e+00  -3.8943569516128538e-09 8.3461209302072616e-10 0.0000000000000000e+00  -4.3756629861609307e-09 1.2934002016152893e-09 0.0000000000000000e+00  -5.0285893418675098e-09 2.0698730932835616e-09 0.0000000000000000e+00  -5.9994942601068799e-09 3.5128610729091361e-09 0.0000000000000000e+00  -6.4585668007280018e-09 6.3382617900030212e-09 0.0000000000000000e+00  -4.0936211782210915e-09 1.2145612771658624e-08 0.0000000000000000e+00  1.1957747014799990e-11 5.5704140898975461e-12 0.0000000000000000e+00  -3.2822175996823152e-13 -1.7199251282150981e-11 0.0000000000000000e+00  -2.1203657915791522e-09 -7.5734474377189344e-09 0.0000000000000000e+00  -4.1082613010996308e-09 -5.7741247513419717e-09 0.0000000000000000e+00  -4.4445572898281424e-09 -3.7875600289215406e-09 0.0000000000000000e+00  -4.3995278383250816e-09 -2.5392947853381584e-09 0.0000000000000000e+00  -4.1698094649935890e-09 -1.7086806910306614e-09 0.0000000000000000e+00  -3.8962346131281216e-09 -1.1379097326375515e-09 0.0000000000000000e+00  -3.6978630475435801e-09 -7.4484772357834781e-10 0.0000000000000000e+00  -3.5537520486434845e-09 -4.5153682027509900e-10 0.0000000000000000e+00  -3.4693787915667839e-09 -2.1343230288405525e-10 0.0000000000000000e+00  -3.4414552991642634e-09 -1.5392038831920265e-13 0.0000000000000000e+00  -3.4686402167983249e-09 2.1307894216544724e-10 0.0000000000000000e+00  -3.5520304070897972e-09 4.5094195382053011e-10 0.0000000000000000e+00  -3.6943955032794529e-09 7.4391761629798067e-10 0.0000000000000000e+00  -3.8972326059613250e-09 1.1362312116003764e-09 0.0000000000000000e+00  -4.1503014764030105e-09 1.6984688827642792e-09 0.0000000000000000e+00  -4.4162335975215755e-09 2.5466488017566373e-09 0.0000000000000000e+00  -4.5017413684580165e-09 3.8472887646202319e-09 0.0000000000000000e+00  -3.9447411747179320e-09 5.7876218436549214e-09 0.0000000000000000e+00  -2.1367266273087476e-09 7.0496685260154073e-09 0.0000000000000000e+00  -3.7808578902977479e-12 2.8121512916030172e-11 0.0000000000000000e+00  -3.8818551811490959e-13 -1.1036392818435633e-11 0.0000000000000000e+00  -1.1799618819657085e-09 -5.2406236999621709e-09 0.0000000000000000e+00  -2.4886089869562657e-09 -4.5450860866294332e-09 0.0000000000000000e+00  -3.1787771874525424e-09 -3.5418214118705978e-09 0.0000000000000000e+00  -3.4684032424944985e-09 -2.6009796569423637e-09 0.0000000000000000e+00  -3.4825632042793778e-09 -1.8476892865035539e-09 0.0000000000000000e+00  -3.4217521527636476e-09 -1.2915454802908949e-09 0.0000000000000000e+00  -3.3416873667314702e-09 -8.7099331226377317e-10 0.0000000000000000e+00  -3.2706102398026607e-09 -5.3752323093996704e-10 0.0000000000000000e+00  -3.2252026064507552e-09 -2.5670718478837965e-10 0.0000000000000000e+00  -3.2094352948092078e-09 -3.6104783793386277e-13 0.0000000000000000e+00  -3.2246009800932063e-09 2.5590462889676488e-10 0.0000000000000000e+00  -3.2695081137251345e-09 5.3639928326055709e-10 0.0000000000000000e+00  -3.3393117425487197e-09 8.6914296269849654e-10 0.0000000000000000e+00  -3.4210910445083729e-09 1.2897570747054040e-09 0.0000000000000000e+00  -3.4842287867839498e-09 1.8444562121843120e-09 0.0000000000000000e+00  -3.4563487670245077e-09 2.5861248642154240e-09 0.0000000000000000e+00  -3.1939829404217236e-09 3.5493474334020845e-09 0.0000000000000000e+00  -2.4752823642434778e-09 4.5896272121765911e-09 0.0000000000000000e+00  -1.1660778577691453e-09 5.2946620292995738e-09 0.0000000000000000e+00  -2.5400788470980545e-12 1.4841220762303846e-11 0.0000000000000000e+00  -2.0004428377146852e-14 -8.0796334060293432e-12 0.0000000000000000e+00  -7.4464250390493851e-10 -3.9962621501379273e-09 0.0000000000000000e+00  -1.6916371795098424e-09 -3.7141337567825922e-09 0.0000000000000000e+00  -2.3449061211591141e-09 -3.0692862894786252e-09 0.0000000000000000e+00  -2.7138782063545756e-09 -2.3905757348794487e-09 0.0000000000000000e+00  -2.8877079430069976e-09 -1.8011823244169236e-09 0.0000000000000000e+00  -2.9554075339334045e-09 -1.3129283570982226e-09 0.0000000000000000e+00  -2.9664252624162959e-09 -9.0966949431956707e-10 0.0000000000000000e+00  -2.9576476264105325e-09 -5.7165452774267147e-10 0.0000000000000000e+00  -2.9468383298758381e-09 -2.7570029068601608e-10 0.0000000000000000e+00  -2.9422348708545413e-09 -6.2098156709036802e-14 0.0000000000000000e+00  -2.9464594642927450e-09 2.7550903912975298e-10 0.0000000000000000e+00  -2.9570538285827647e-09 5.7129043982856578e-10 0.0000000000000000e+00  -2.9655647501526025e-09 9.0886818571304175e-10 0.0000000000000000e+00  -2.9541601192900451e-09 1.3115363620733664e-09 0.0000000000000000e+00  -2.8891534435338398e-09 1.8018363613241242e-09 0.0000000000000000e+00  -2.7128493431852494e-09 2.3920347816500163e-09 0.0000000000000000e+00  -2.3407732414543141e-09 3.0562994695203641e-09 0.0000000000000000e+00  -1.6878586706586687e-09 3.6960277813549667e-09 0.0000000000000000e+00  -7.5115882146016148e-10 4.0156730555728450e-09 0.0000000000000000e+00  -1.1544130985608286e-13 1.0073400501712271e-11 0.0000000000000000e+00  -7.5398531227071433e-15 -6.2403072425035300e-12 0.0000000000000000e+00  -5.2632855714436777e-10 -3.1257283741127235e-09 0.0000000000000000e+00  -1.2330342109153828e-09 -2.9762755857828256e-09 0.0000000000000000e+00  -1.7846929045561572e-09 -2.5716193992905132e-09 0.0000000000000000e+00  -2.1656540979894117e-09 -2.1078476452552626e-09 0.0000000000000000e+00  -2.4033953926240052e-09 -1.6556067637286817e-09 0.0000000000000000e+00  -2.5397613805560538e-09 -1.2449666614664371e-09 0.0000000000000000e+00  -2.6122729635159755e-09 -8.8384946713151012e-10 0.0000000000000000e+00  -2.6483596063649662e-09 -5.6487794956790399e-10 0.0000000000000000e+00  -2.6640554760692900e-09 -2.7514213981663796e-10 0.0000000000000000e+00  -2.6682967715999380e-09 -2.4710652780072633e-13 0.0000000000000000e+00  -2.6638577731089746e-09 2.7459663331155678e-10 0.0000000000000000e+00  -2.6480213853890880e-09 5.6421666494818331e-10 0.0000000000000000e+00  -2.6120128705324559e-09 8.8305394443569445e-10 0.0000000000000000e+00  -2.5392415545119175e-09 1.2437950035728611e-09 0.0000000000000000e+00  -2.4029996680130663e-09 1.6536624672221843e-09 0.0000000000000000e+00  -2.1657227450062576e-09 2.1065154256751676e-09 0.0000000000000000e+00  -1.7847565243172572e-09 2.5712712748466535e-09 0.0000000000000000e+00  -1.2316923616329617e-09 2.9748775233709997e-09 0.0000000000000000e+00  -5.3074454590267423e-10 3.1340956802294851e-09 0.0000000000000000e+00  -2.6748955691130394e-13 7.7621236965830079e-12 0.0000000000000000e+00  1.6599844643583366e-15 -4.8684325070982977e-12 0.0000000000000000e+00  -3.9645867686722518e-10 -2.4773131964875138e-09 0.0000000000000000e+00  -9.4556111975217153e-10 -2.4019766692368906e-09 0.0000000000000000e+00  -1.4087927095813859e-09 -2.1362714897415064e-09 0.0000000000000000e+00  -1.7646037853184549e-09 -1.8054322318062461e-09 0.0000000000000000e+00  -2.0167998929654156e-09 -1.4594103825735223e-09 0.0000000000000000e+00  -2.1858532784154073e-09 -1.1258281465662639e-09 0.0000000000000000e+00  -2.2936197137933208e-09 -8.1544677440536914e-10 0.0000000000000000e+00  -2.3580254150099542e-09 -5.2851998303848964e-10 0.0000000000000000e+00  -2.3917567822670028e-09 -2.5960803355103452e-10 0.0000000000000000e+00  -2.4021812113838069e-09 -3.2766753982723277e-13 0.0000000000000000e+00  -2.3916669201537855e-09 2.5892391493290856e-10 0.0000000000000000e+00  -2.3578589339370529e-09 5.2774635217803101e-10 0.0000000000000000e+00  -2.2934534838274631e-09 8.1457304534978710e-10 0.0000000000000000e+00  -2.1857411006133402e-09 1.1248589468434991e-09 0.0000000000000000e+00  -2.0165922781302759e-09 1.4580118322282843e-09 0.0000000000000000e+00  -1.7643444631401337e-09 1.8029715640634540e-09 0.0000000000000000e+00  -1.4095483385856297e-09 2.1333800830016328e-09 0.0000000000000000e+00  -9.4621666865570507e-10 2.4013482751132597e-09 0.0000000000000000e+00  -3.9966097418928048e-10 2.4874062360700169e-09 0.0000000000000000e+00  -1.2298188656275989e-13 5.9429688856792473e-12 0.0000000000000000e+00  6.5545392517488797e-15 -3.8350995018607353e-12 0.0000000000000000e+00  -3.1321090614575707e-10 -1.9749614593405169e-09 0.0000000000000000e+00  -7.5608158473541053e-10 -1.9356604501461558e-09 0.0000000000000000e+00  -1.1471308063558319e-09 -1.7521779200040165e-09 0.0000000000000000e+00  -1.4675064010055627e-09 -1.5124397224923401e-09 0.0000000000000000e+00  -1.7134100449263781e-09 -1.2492012119107241e-09 0.0000000000000000e+00  -1.8929296565766222e-09 -9.8233748500841822e-10 0.0000000000000000e+00  -2.0172351235228304e-09 -7.2257305088821058e-10 0.0000000000000000e+00  -2.0973647202111708e-09 -4.7362070710487160e-10 0.0000000000000000e+00  -2.1419133031999204e-09 -2.3426502843574438e-10 0.0000000000000000e+00  -2.1561604004208470e-09 -3.6202221366355835e-13 0.0000000000000000e+00  -2.1418745947312094e-09 2.3352352246533406e-10 0.0000000000000000e+00  -2.0972974002009542e-09 4.7282361143357750e-10 0.0000000000000000e+00  -2.0171559867616448e-09 7.2166697574345899e-10 0.0000000000000000e+00  -1.8928830406596059e-09 9.8127620933239620e-10 0.0000000000000000e+00  -1.7134667182301579e-09 1.2479286384465225e-09 0.0000000000000000e+00  -1.4676528137699870e-09 1.5107730032565074e-09 0.0000000000000000e+00  -1.1479622491475485e-09 1.7503140167190436e-09 0.0000000000000000e+00  -7.5685017550904693e-10 1.9356372365479270e-09 0.0000000000000000e+00  -3.1576515448579094e-10 1.9828802727179466e-09 0.0000000000000000e+00  -7.4027480008065213e-14 4.6680458030874852e-12 0.0000000000000000e+00  6.9413383167772788e-15 -3.0061502122071746e-12 0.0000000000000000e+00  -2.5708560984969702e-10 -1.5681558509871782e-09 0.0000000000000000e+00  -6.2524333920334348e-10 -1.5476710247077840e-09 0.0000000000000000e+00  -9.6003027709152569e-10 -1.4176962621786697e-09 0.0000000000000000e+00  -1.2461367650259935e-09 -1.2417845801043391e-09 0.0000000000000000e+00  -1.4772070750589079e-09 -1.0413473076483943e-09 0.0000000000000000e+00  -1.6550317453143769e-09 -8.3042701657030420e-10 0.0000000000000000e+00  -1.7845390772034404e-09 -6.1804818041598676e-10 0.0000000000000000e+00  -1.8717365113016985e-09 -4.0869194803042419e-10 0.0000000000000000e+00  -1.9217862268482717e-09 -2.0326988839147848e-10 0.0000000000000000e+00  -1.9380735208880269e-09 -3.8024234387607829e-13 0.0000000000000000e+00  -1.9217725903830283e-09 2.0249613846336932e-10 0.0000000000000000e+00  -1.8717191984512693e-09 4.0787737169513147e-10 0.0000000000000000e+00  -1.7845327074520148e-09 6.1715797221749113e-10 0.0000000000000000e+00  -1.6550620330582166e-09 8.2940875715702324e-10 0.0000000000000000e+00  -1.4773601473914779e-09 1.0401501285195824e-09 0.0000000000000000e+00  -1.2464600465939311e-09 1.2404040348037579e-09 0.0000000000000000e+00  -9.6086543133976781e-10 1.4164697582805841e-09 0.0000000000000000e+00  -6.2593368358227085e-10 1.5481027529461430e-09 0.0000000000000000e+00  -2.5902499887107273e-10 1.5747536568576820e-09 0.0000000000000000e+00  -4.8754578079246294e-14 3.6770298689060401e-12 0.0000000000000000e+00  6.7557979619554775e-15 -2.3167592547010789e-12 0.0000000000000000e+00  -2.1790447972337461e-10 -1.2277731264453006e-09 0.0000000000000000e+00  -5.3253957405000568e-10 -1.2175006721963398e-09 0.0000000000000000e+00  -8.2430967013851646e-10 -1.1242360533283147e-09 0.0000000000000000e+00  -1.0807023483123379e-09 -9.9466848539212808e-10 0.0000000000000000e+00  -1.2948572164755975e-09 -8.4309011477979018e-10 0.0000000000000000e+00  -1.4655274830784957e-09 -6.7920611238856499e-10 0.0000000000000000e+00  -1.5940072367162159e-09 -5.0993733731077486e-10 0.0000000000000000e+00  -1.6829542171605037e-09 -3.3945475306616292e-10 0.0000000000000000e+00  -1.7350444483395377e-09 -1.6955960953432960e-10 0.0000000000000000e+00  -1.7521807942988308e-09 -3.8646652037208864e-13 0.0000000000000000e+00  -1.7350453987592635e-09 1.6877665519450806e-10 0.0000000000000000e+00  -1.6829635542907916e-09 3.3864130289244260e-10 0.0000000000000000e+00  -1.5940421749648796e-09 5.0907147444032508e-10 0.0000000000000000e+00  -1.4656154338102690e-09 6.7826409400638076e-10 0.0000000000000000e+00  -1.2950611930225347e-09 8.4205317291542657e-10 0.0000000000000000e+00  -1.0810565449905184e-09 9.9355874411024682e-10 0.0000000000000000e+00  -8.2502753263348908e-10 1.1233641417568588e-09 0.0000000000000000e+00  -5.3310368223566840e-10 1.2180971591341006e-09 0.0000000000000000e+00  -2.1937299339036478e-10 1.2334424703915007e-09 0.0000000000000000e+00  -3.1578061943406057e-14 2.8767625283711514e-12 0.0000000000000000e+00  6.0583548027147578e-15 -1.7244452536092607e-12 0.0000000000000000e+00  -1.9022560701709524e-10 -9.3444765827938071e-10 0.0000000000000000e+00  -4.6635340281896028e-10 -9.2973781006457344e-10 0.0000000000000000e+00  -7.2580245212115131e-10 -8.6321403654061194e-10 0.0000000000000000e+00  -9.5806688163348457e-10 -7.6900886937328800e-10 0.0000000000000000e+00  -1.1564986154208255e-09 -6.5671761055596059e-10 0.0000000000000000e+00  -1.3183980681584000e-09 -5.3291398776220550e-10 0.0000000000000000e+00  -1.4430040121190307e-09 -4.0264430198826182e-10 0.0000000000000000e+00  -1.5308858491752387e-09 -2.6935366194695551e-10 0.0000000000000000e+00  -1.5830456279536666e-09 -1.3499025453305098e-10 0.0000000000000000e+00  -1.6003275537180996e-09 -3.8677203275611771e-13 0.0000000000000000e+00  -1.5830541705230838e-09 1.3421022226716593e-10 0.0000000000000000e+00  -1.5309094014573546e-09 2.6855421240695378e-10 0.0000000000000000e+00  -1.4430576404278145e-09 4.0181382892443544e-10 0.0000000000000000e+00  -1.3185061925656694e-09 5.3204612882485724e-10 0.0000000000000000e+00  -1.1567067105320966e-09 6.5581746025840220e-10 0.0000000000000000e+00  -9.5839064061417581e-10 7.6811039584759941e-10 0.0000000000000000e+00  -7.2637229743109657e-10 8.6257659721608010e-10 0.0000000000000000e+00  -4.6678424656912771e-10 9.3039348401351820e-10 0.0000000000000000e+00  -1.9131792179316258e-10 9.3941707242560957e-10 0.0000000000000000e+00  -2.0732538681034500e-14 2.2075507754776785e-12 0.0000000000000000e+00  4.9614579354425568e-15 -1.1989804049201164e-12 0.0000000000000000e+00  -1.7093446413423279e-10 -6.7439023811206408e-10 0.0000000000000000e+00  -4.1985056390899389e-10 -6.7271099380567076e-10 0.0000000000000000e+00  -6.5580326115500397e-10 -6.2691854274174406e-10 0.0000000000000000e+00  -8.6963253817945102e-10 -5.6111483162182950e-10 0.0000000000000000e+00  -1.0550730864781756e-09 -4.8163968552954381e-10 0.0000000000000000e+00  -1.2087537056745443e-09 -3.9281239564860517e-10 0.0000000000000000e+00  -1.3287903385966680e-09 -2.9811759707395473e-10 0.0000000000000000e+00  -1.4145034676553385e-09 -2.0013987666413204e-10 0.0000000000000000e+00  -1.4658309453807116e-09 -1.0056590727040612e-10 0.0000000000000000e+00  -1.4829170670402947e-09 -3.8388480636021255e-13 0.0000000000000000e+00  -1.4658418905451266e-09 9.9794693675423382e-11 0.0000000000000000e+00  -1.4145307332956009e-09 1.9935914096627146e-10 0.0000000000000000e+00  -1.3288456740766719e-09 2.9732432316844443e-10 0.0000000000000000e+00  -1.2088551261585459e-09 3.9201054712510818e-10 0.0000000000000000e+00  -1.0552507525951353e-09 4.8084432427837415e-10 0.0000000000000000e+00  -8.6989196676725282e-10 5.6036136111288153e-10 0.0000000000000000e+00  -6.5622355722718592e-10 6.2642875658536714e-10 0.0000000000000000e+00  -4.2015963069185860e-10 6.7338301497858925e-10 0.0000000000000000e+00  -1.7171009957726617e-10 6.7886170824104431e-10 0.0000000000000000e+00  -1.3255284060272017e-14 1.6290079311613270e-12 0.0000000000000000e+00  3.5031864794840237e-15 -7.1767901853914555e-13 0.0000000000000000e+00  -1.5820323988136053e-10 -4.3713390638971771e-10 0.0000000000000000e+00  -3.8895143788594498e-10 -4.3711118503662627e-10 0.0000000000000000e+00  -6.0894010731645408e-10 -4.0843124094671772e-10 0.0000000000000000e+00  -8.0983410250774976e-10 -3.6668375856918146e-10 0.0000000000000000e+00  -9.8571999366699706e-10 -3.15803616285457