<?xml version="1.0"?>
<VTKFile type="UnstructuredGrid"  version="0.1"  >
<UnstructuredGrid>
<Piece  NumberOfPoints="651" NumberOfCells="1200">
<Points>
<DataArray  type="Float64"  NumberOfComponents="3"  format="ascii">0 0 0  50000 0 0  100000 0 0  150000 0 0  200000 0 0  250000 0 0  300000 0 0  350000 0 0  400000 0 0  450000 0 0  500000 0 0  550000 0 0  600000 0 0  650000 0 0  700000 0 0  750000 0 0  800000 0 0  850000 0 0  900000 0 0  950000 0 0  1000000 0 0  0 50000 0  50000 50000 0  100000 50000 0  150000 50000 0  200000 50000 0  250000 50000 0  300000 50000 0  350000 50000 0  400000 50000 0  450000 50000 0  500000 50000 0  550000 50000 0  600000 50000 0  650000 50000 0  700000 50000 0  750000 50000 0  800000 50000 0  850000 50000 0  900000 50000 0  950000 50000 0  1000000 50000 0  0 100000 0  50000 100000 0  100000 100000 0  150000 100000 0  200000 100000 0  250000 100000 0  300000 100000 0  350000 100000 0  400000 100000 0  450000 100000 0  500000 100000 0  550000 100000 0  600000 100000 0  650000 100000 0  700000 100000 0  750000 100000 0  800000 100000 0  850000 100000 0  900000 100000 0  950000 100000 0  1000000 100000 0  0 150000 0  50000 150000 0  100000 150000 0  150000 150000 0  200000 150000 0  250000 150000 0  300000 150000 0  350000 150000 0  400000 150000 0  450000 150000 0  500000 150000 0  550000 150000 0  600000 150000 0  650000 150000 0  700000 150000 0  750000 150000 0  800000 150000 0  850000 150000 0  900000 150000 0  950000 150000 0  1000000 150000 0  0 200000 0  50000 200000 0  100000 200000 0  150000 200000 0  200000 200000 0  250000 200000 0  300000 200000 0  350000 200000 0  400000 200000 0  450000 200000 0  500000 200000 0  550000 200000 0  600000 200000 0  650000 200000 0  700000 200000 0  750000 200000 0  800000 200000 0  850000 200000 0  900000 200000 0  950000 200000 0  1000000 200000 0  0 250000 0  50000 250000 0  100000 250000 0  150000 250000 0  200000 250000 0  250000 250000 0  300000 250000 0  350000 250000 0  400000 250000 0  450000 250000 0  500000 250000 0  550000 250000 0  600000 250000 0  650000 250000 0  700000 250000 0  750000 250000 0  800000 250000 0  850000 250000 0  900000 250000 0  950000 250000 0  1000000 250000 0  0 300000 0  50000 300000 0  100000 300000 0  150000 300000 0  200000 300000 0  250000 300000 0  300000 300000 0  350000 300000 0  400000 300000 0  450000 300000 0  500000 300000 0  550000 300000 0  600000 300000 0  650000 300000 0  700000 300000 0  750000 300000 0  800000 300000 0  850000 300000 0  900000 300000 0  950000 300000 0  1000000 300000 0  0 350000 0  50000 350000 0  100000 350000 0  150000 350000 0  200000 350000 0  250000 350000 0  300000 350000 0  350000 350000 0  400000 350000 0  450000 350000 0  500000 350000 0  550000 350000 0  600000 350000 0  650000 350000 0  700000 350000 0  750000 350000 0  800000 350000 0  850000 350000 0  900000 350000 0  950000 350000 0  1000000 350000 0  0 400000 0  50000 400000 0  100000 400000 0  150000 400000 0  200000 400000 0  250000 400000 0  300000 400000 0  350000 400000 0  400000 400000 0  450000 400000 0  500000 400000 0  550000 400000 0  600000 400000 0  650000 400000 0  700000 400000 0  750000 400000 0  800000 400000 0  850000 400000 0  900000 400000 0  950000 400000 0  1000000 400000 0  0 450000 0  50000 450000 0  100000 450000 0  150000 450000 0  200000 450000 0  250000 450000 0  300000 450000 0  350000 450000 0  400000 450000 0  450000 450000 0  500000 450000 0  550000 450000 0  600000 450000 0  650000 450000 0  700000 450000 0  750000 450000 0  800000 450000 0  850000 450000 0  900000 450000 0  950000 450000 0  1000000 450000 0  0 500000 0  50000 500000 0  100000 500000 0  150000 500000 0  200000 500000 0  250000 500000 0  300000 500000 0  350000 500000 0  400000 500000 0  450000 500000 0  500000 500000 0  550000 500000 0  600000 500000 0  650000 500000 0  700000 500000 0  750000 500000 0  800000 500000 0  850000 500000 0  900000 500000 0  950000 500000 0  1000000 500000 0  0 550000 0  50000 550000 0  100000 550000 0  150000 550000 0  200000 550000 0  250000 550000 0  300000 550000 0  350000 550000 0  400000 550000 0  450000 550000 0  500000 550000 0  550000 550000 0  600000 550000 0  650000 550000 0  700000 550000 0  750000 550000 0  800000 550000 0  850000 550000 0  900000 550000 0  950000 550000 0  1000000 550000 0  0 600000 0  50000 600000 0  100000 600000 0  150000 600000 0  200000 600000 0  250000 600000 0  300000 600000 0  350000 600000 0  400000 600000 0  450000 600000 0  500000 600000 0  550000 600000 0  600000 600000 0  650000 600000 0  700000 600000 0  750000 600000 0  800000 600000 0  850000 600000 0  900000 600000 0  950000 600000 0  1000000 600000 0  0 650000 0  50000 650000 0  100000 650000 0  150000 650000 0  200000 650000 0  250000 650000 0  300000 650000 0  350000 650000 0  400000 650000 0  450000 650000 0  500000 650000 0  550000 650000 0  600000 650000 0  650000 650000 0  700000 650000 0  750000 650000 0  800000 650000 0  850000 650000 0  900000 650000 0  950000 650000 0  1000000 650000 0  0 700000 0  50000 700000 0  100000 700000 0  150000 700000 0  200000 700000 0  250000 700000 0  300000 700000 0  350000 700000 0  400000 700000 0  450000 700000 0  500000 700000 0  550000 700000 0  600000 700000 0  650000 700000 0  700000 700000 0  750000 700000 0  800000 700000 0  850000 700000 0  900000 700000 0  950000 700000 0  1000000 700000 0  0 750000 0  50000 750000 0  100000 750000 0  150000 750000 0  200000 750000 0  250000 750000 0  300000 750000 0  350000 750000 0  400000 750000 0  450000 750000 0  500000 750000 0  550000 750000 0  600000 750000 0  650000 750000 0  700000 750000 0  750000 750000 0  800000 750000 0  850000 750000 0  900000 750000 0  950000 750000 0  1000000 750000 0  0 800000 0  50000 800000 0  100000 800000 0  150000 800000 0  200000 800000 0  250000 800000 0  300000 800000 0  350000 800000 0  400000 800000 0  450000 800000 0  500000 800000 0  550000 800000 0  600000 800000 0  650000 800000 0  700000 800000 0  750000 800000 0  800000 800000 0  850000 800000 0  900000 800000 0  950000 800000 0  1000000 800000 0  0 850000 0  50000 850000 0  100000 850000 0  150000 850000 0  200000 850000 0  250000 850000 0  300000 850000 0  350000 850000 0  400000 850000 0  450000 850000 0  500000 850000 0  550000 850000 0  600000 850000 0  650000 850000 0  700000 850000 0  750000 850000 0  800000 850000 0  850000 850000 0  900000 850000 0  950000 850000 0  1000000 850000 0  0 900000 0  50000 900000 0  100000 900000 0  150000 900000 0  200000 900000 0  250000 900000 0  300000 900000 0  350000 900000 0  400000 900000 0  450000 900000 0  500000 900000 0  550000 900000 0  600000 900000 0  650000 900000 0  700000 900000 0  750000 900000 0  800000 900000 0  850000 900000 0  900000 900000 0  950000 900000 0  1000000 900000 0  0 950000 0  50000 950000 0  100000 950000 0  150000 950000 0  200000 950000 0  250000 950000 0  300000 950000 0  350000 950000 0  400000 950000 0  450000 950000 0  500000 950000 0  550000 950000 0  600000 950000 0  650000 950000 0  700000 950000 0  750000 950000 0  800000 950000 0  850000 950000 0  900000 950000 0  950000 950000 0  1000000 950000 0  0 1000000 0  50000 1000000 0  100000 1000000 0  150000 1000000 0  200000 1000000 0  250000 1000000 0  300000 1000000 0  350000 1000000 0  400000 1000000 0  450000 1000000 0  500000 1000000 0  550000 1000000 0  600000 1000000 0  650000 1000000 0  700000 1000000 0  750000 1000000 0  800000 1000000 0  850000 1000000 0  900000 1000000 0  950000 1000000 0  1000000 1000000 0  0 1050000 0  50000 1050000 0  100000 1050000 0  150000 1050000 0  200000 1050000 0  250000 1050000 0  300000 1050000 0  350000 1050000 0  400000 1050000 0  450000 1050000 0  500000 1050000 0  550000 1050000 0  600000 1050000 0  650000 1050000 0  700000 1050000 0  750000 1050000 0  800000 1050000 0  850000 1050000 0  900000 1050000 0  950000 1050000 0  1000000 1050000 0  0 1100000 0  50000 1100000 0  100000 1100000 0  150000 1100000 0  200000 1100000 0  250000 1100000 0  300000 1100000 0  350000 1100000 0  400000 1100000 0  450000 1100000 0  500000 1100000 0  550000 1100000 0  600000 1100000 0  650000 1100000 0  700000 1100000 0  750000 1100000 0  800000 1100000 0  850000 1100000 0  900000 1100000 0  950000 1100000 0  1000000 1100000 0  0 1150000 0  50000 1150000 0  100000 1150000 0  150000 1150000 0  200000 1150000 0  250000 1150000 0  300000 1150000 0  350000 1150000 0  400000 1150000 0  450000 1150000 0  500000 1150000 0  550000 1150000 0  600000 1150000 0  650000 1150000 0  700000 1150000 0  750000 1150000 0  800000 1150000 0  850000 1150000 0  900000 1150000 0  950000 1150000 0  1000000 1150000 0  0 1200000 0  50000 1200000 0  100000 1200000 0  150000 1200000 0  200000 1200000 0  250000 1200000 0  300000 1200000 0  350000 1200000 0  400000 1200000 0  450000 1200000 0  500000 1200000 0  550000 1200000 0  600000 1200000 0  650000 1200000 0  700000 1200000 0  750000 1200000 0  800000 1200000 0  850000 1200000 0  900000 1200000 0  950000 1200000 0  1000000 1200000 0  0 1250000 0  50000 1250000 0  100000 1250000 0  150000 1250000 0  200000 1250000 0  250000 1250000 0  300000 1250000 0  350000 1250000 0  400000 1250000 0  450000 1250000 0  500000 1250000 0  550000 1250000 0  600000 1250000 0  650000 1250000 0  700000 1250000 0  750000 1250000 0  800000 1250000 0  850000 1250000 0  900000 1250000 0  950000 1250000 0  1000000 1250000 0  0 1300000 0  50000 1300000 0  100000 1300000 0  150000 1300000 0  200000 1300000 0  250000 1300000 0  300000 1300000 0  350000 1300000 0  400000 1300000 0  450000 1300000 0  500000 1300000 0  550000 1300000 0  600000 1300000 0  650000 1300000 0  700000 1300000 0  750000 1300000 0  800000 1300000 0  850000 1300000 0  900000 1300000 0  950000 1300000 0  1000000 1300000 0  0 1350000 0  50000 1350000 0  100000 1350000 0  150000 1350000 0  200000 1350000 0  250000 1350000 0  300000 1350000 0  350000 1350000 0  400000 1350000 0  450000 1350000 0  500000 1350000 0  550000 1350000 0  600000 1350000 0  650000 1350000 0  700000 135
[...]
<PointData  Vectors="f_25021"> 
<DataArray  type="Float64"  Name="f_25021"  NumberOfComponents="3" format="ascii">-9.7565560078931320e-11 -6.1617720757100519e-11 0.0000000000000000e+00  7.9933267376443869e-08 -5.4763460275109525e-11 0.0000000000000000e+00  7.9995571786124015e-08 2.1103171947076114e-12 0.0000000000000000e+00  7.9986582041832462e-08 1.5677018462688366e-12 0.0000000000000000e+00  7.9993207773475551e-08 4.1956899968473481e-13 0.0000000000000000e+00  7.9994394433700835e-08 5.1463260887641819e-13 0.0000000000000000e+00  7.9995235648549995e-08 2.7546803340798301e-13 0.0000000000000000e+00  7.9995758488186532e-08 1.8035824290301001e-13 0.0000000000000000e+00  7.9996040294989478e-08 1.0861952313878815e-13 0.0000000000000000e+00  7.9996176428145774e-08 5.2233987959012160e-14 0.0000000000000000e+00  7.9996185502476362e-08 3.9301927379598735e-15 0.0000000000000000e+00  7.9996069392097622e-08 -4.2518673465783550e-14 0.0000000000000000e+00  7.9995805690090201e-08 -9.4907072303120882e-14 0.0000000000000000e+00  7.9995353493304583e-08 -1.6311239136392423e-13 0.0000000000000000e+00  7.9994495349337448e-08 -1.6407518227761559e-13 0.0000000000000000e+00  7.9993310570929369e-08 -6.3335861516392360e-13 0.0000000000000000e+00  7.9990789674719705e-08 5.0953563744440510e-13 0.0000000000000000e+00  7.9976581912150767e-08 4.0047151926032528e-12 0.0000000000000000e+00  7.9995299281495844e-08 -3.1168595936854898e-11 0.0000000000000000e+00  7.9589609114346521e-08 3.6935823876740532e-10 0.0000000000000000e+00  -5.3816075968116303e-10 4.7041060031842123e-10 0.0000000000000000e+00  -7.6164243732213311e-11 -5.8502410580070357e-11 0.0000000000000000e+00  -1.1774117846940668e-08 -1.8487210835322581e-08 0.0000000000000000e+00  1.7434903367047265e-09 -5.9715141327758012e-09 0.0000000000000000e+00  4.0682488217788536e-09 -2.7412393820136691e-09 0.0000000000000000e+00  7.4359624704878865e-09 -1.3500418182154201e-09 0.0000000000000000e+00  8.7777809799127201e-09 -7.6508656432793198e-10 0.0000000000000000e+00  9.6810330086871829e-09 -4.8024401467136392e-10 0.0000000000000000e+00  1.0243281509875881e-08 -3.0419536257784469e-10 0.0000000000000000e+00  1.0586376681708657e-08 -1.8634568073205833e-10 0.0000000000000000e+00  1.0774014562266602e-08 -9.6417357710707450e-11 0.0000000000000000e+00  1.0833329753995592e-08 -1.8235874614671159e-11 0.0000000000000000e+00  1.0773068648873980e-08 5.9939509031775907e-11 0.0000000000000000e+00  1.0584705371632533e-08 1.4992668931145993e-10 0.0000000000000000e+00  1.0239013905187254e-08 2.6774869565100299e-10 0.0000000000000000e+00  9.6801131170744183e-09 4.4233268635482054e-10 0.0000000000000000e+00  8.7848169724076355e-09 7.3358520400534622e-10 0.0000000000000000e+00  7.2866272833554267e-09 1.2758793505806580e-09 0.0000000000000000e+00  5.0554224736633231e-09 2.6549462699811700e-09 0.0000000000000000e+00  -1.5978758205505824e-09 6.2032321928371508e-09 0.0000000000000000e+00  -7.9930427249785148e-09 1.7555213086691750e-08 0.0000000000000000e+00  -3.9478559656244017e-10 3.7834424396304514e-10 0.0000000000000000e+00  -6.9656275883045966e-12 -9.9916312168599383e-12 0.0000000000000000e+00  -7.0438109809473986e-09 -1.4195110541381750e-08 0.0000000000000000e+00  -9.4955030517853377e-09 -9.5810144390173298e-09 0.0000000000000000e+00  -8.8220674979881739e-09 -5.3664183617182782e-09 0.0000000000000000e+00  -7.0999016902484976e-09 -2.9425706946329601e-09 0.0000000000000000e+00  -6.1923494037872496e-09 -1.8027941837075606e-09 0.0000000000000000e+00  -5.3943336749972863e-09 -1.1362829019096937e-09 0.0000000000000000e+00  -4.8976725556882904e-09 -7.1362108752444225e-10 0.0000000000000000e+00  -4.5740252995802752e-09 -4.1953578754877510e-10 0.0000000000000000e+00  -4.3940881626118196e-09 -1.9016486057854445e-10 0.0000000000000000e+00  -4.3365016583314617e-09 1.1120350311981436e-11 0.0000000000000000e+00  -4.3944308032683547e-09 2.1240841022151449e-10 0.0000000000000000e+00  -4.5744457854188108e-09 4.4165572977889334e-10 0.0000000000000000e+00  -4.8969803881774478e-09 7.3589549758769713e-10 0.0000000000000000e+00  -5.4011283537314136e-09 1.1558830337134894e-09 0.0000000000000000e+00  -6.1514939541639712e-09 1.8167629793480037e-09 0.0000000000000000e+00  -7.2021735649566262e-09 2.9707758019514666e-09 0.0000000000000000e+00  -8.7290144990746078e-09 5.1938634091124643e-09 0.0000000000000000e+00  -9.6500821412059312e-09 9.7202395409182184e-09 0.0000000000000000e+00  -5.9991780140305922e-09 1.6911899216275242e-08 0.0000000000000000e+00  1.1716401049755442e-11 -4.1436733997812696e-14 0.0000000000000000e+00  1.3892327563838101e-12 -1.1105747638246925e-11 0.0000000000000000e+00  -2.9966554288812643e-09 -1.0479325077444780e-08 0.0000000000000000e+00  -5.9204982086556297e-09 -8.6442044697657845e-09 0.0000000000000000e+00  -6.5411298931356480e-09 -5.6691509747824969e-09 0.0000000000000000e+00  -6.4218478560802952e-09 -3.7421453334966786e-09 0.0000000000000000e+00  -6.0367418875413019e-09 -2.4807232203384401e-09 0.0000000000000000e+00  -5.6041451932333756e-09 -1.6370739593162693e-09 0.0000000000000000e+00  -5.2965410938756701e-09 -1.0651472285060976e-09 0.0000000000000000e+00  -5.0714650426998090e-09 -6.4277559155397079e-10 0.0000000000000000e+00  -4.9423116899007168e-09 -3.0304569240068104e-10 0.0000000000000000e+00  -4.8996049821542779e-09 -1.4598421943883156e-13 0.0000000000000000e+00  -4.9416780800950397e-09 3.0275820055905828e-10 0.0000000000000000e+00  -5.0705753358737344e-09 6.4227976351383630e-10 0.0000000000000000e+00  -5.2917298921150078e-09 1.0642883744239778e-09 0.0000000000000000e+00  -5.6100651621250173e-09 1.6366866302766213e-09 0.0000000000000000e+00  -6.0139362154649328e-09 2.4708697136794883e-09 0.0000000000000000e+00  -6.4445727751677968e-09 3.7546188522236778e-09 0.0000000000000000e+00  -6.6089140309508243e-09 5.7626212775594661e-09 0.0000000000000000e+00  -5.7265201243068419e-09 8.7180909457341294e-09 0.0000000000000000e+00  -2.9101273244985806e-09 9.8728708849588541e-09 0.0000000000000000e+00  -4.8545351656247566e-13 1.9876184997646876e-11 0.0000000000000000e+00  6.3023112408394177e-13 -6.5805069506786977e-12 0.0000000000000000e+00  -1.5671843062736975e-09 -7.2008008400360756e-09 0.0000000000000000e+00  -3.5457270378858975e-09 -6.8055619764507983e-09 0.0000000000000000e+00  -4.6292142251076920e-09 -5.2795552114150987e-09 0.0000000000000000e+00  -5.0550796193249121e-09 -3.8432549562455927e-09 0.0000000000000000e+00  -5.0670093323754551e-09 -2.7083526910749914e-09 0.0000000000000000e+00  -4.9635041657474821e-09 -1.8815850080310788e-09 0.0000000000000000e+00  -4.8335506827988267e-09 -1.2623875441328349e-09 0.0000000000000000e+00  -4.7197158672893650e-09 -7.7589137003859480e-10 0.0000000000000000e+00  -4.6488351240889374e-09 -3.6946730359378237e-10 0.0000000000000000e+00  -4.6241005746879221e-09 2.5010588058843780e-13 0.0000000000000000e+00  -4.6482104861286598e-09 3.6992947110101927e-10 0.0000000000000000e+00  -4.7193525548347390e-09 7.7626330658132304e-10 0.0000000000000000e+00  -4.8308606067282811e-09 1.2620006927689643e-09 0.0000000000000000e+00  -4.9639248123181113e-09 1.8823917818540557e-09 0.0000000000000000e+00  -5.0719359554033747e-09 2.7105357304654498e-09 0.0000000000000000e+00  -5.0420555151275312e-09 3.8310302953386291e-09 0.0000000000000000e+00  -4.6434407806543578e-09 5.2949445673310461e-09 0.0000000000000000e+00  -3.5207507016106618e-09 6.8641190201468227e-09 0.0000000000000000e+00  -1.5140306243714920e-09 7.2260578121391756e-09 0.0000000000000000e+00  -1.1173867125140991e-12 9.5465579765794203e-12 0.0000000000000000e+00  5.8514795346983336e-13 -4.5952037587632776e-12 0.0000000000000000e+00  -9.5860678074653090e-10 -5.4231581119200671e-09 0.0000000000000000e+00  -2.3635945232313124e-09 -5.4849771837350560e-09 0.0000000000000000e+00  -3.3671927899278389e-09 -4.5472967072138897e-09 0.0000000000000000e+00  -3.9261807385038335e-09 -3.5313740935297590e-09 0.0000000000000000e+00  -4.1844532079186887e-09 -2.6505874890965643e-09 0.0000000000000000e+00  -4.2797355911220427e-09 -1.9236451192576565e-09 0.0000000000000000e+00  -4.2888433206249322e-09 -1.3277262353815085e-09 0.0000000000000000e+00  -4.2710154042817149e-09 -8.3219780155969982e-10 0.0000000000000000e+00  -4.2520488970966817e-09 -4.0066477696494579e-10 0.0000000000000000e+00  -4.2441842989934451e-09 1.3803308848637583e-13 0.0000000000000000e+00  -4.2516898802934007e-09 4.0088694553400897e-10 0.0000000000000000e+00  -4.2707027434485412e-09 8.3245519198080652e-10 0.0000000000000000e+00  -4.2885830400898186e-09 1.3279019946488956e-09 0.0000000000000000e+00  -4.2781473361386592e-09 1.9233159755946836e-09 0.0000000000000000e+00  -4.1872172546800964e-09 2.6539419789873165e-09 0.0000000000000000e+00  -3.9250964134362765e-09 3.5386516550354331e-09 0.0000000000000000e+00  -3.3580421466587172e-09 4.5349165869534291e-09 0.0000000000000000e+00  -2.3529435210434684e-09 5.4658276552400680e-09 0.0000000000000000e+00  -9.5581242151298226e-10 5.4284601111814521e-09 0.0000000000000000e+00  7.5036705610426927e-13 5.8532196816580416e-12 0.0000000000000000e+00  4.1332762937678782e-13 -3.4761990688719556e-12 0.0000000000000000e+00  -6.6620295141895952e-10 -4.2101187149494788e-09 0.0000000000000000e+00  -1.6978012641025498e-09 -4.3661726950570553e-09 0.0000000000000000e+00  -2.5333325930625913e-09 -3.7926539934334715e-09 0.0000000000000000e+00  -3.1078390880991457e-09 -3.1076859691124696e-09 0.0000000000000000e+00  -3.4634081496036055e-09 -2.4357634001745596e-09 0.0000000000000000e+00  -3.6633893070391005e-09 -1.8266301269588300e-09 0.0000000000000000e+00  -3.7677149168831140e-09 -1.2937410055892017e-09 0.0000000000000000e+00  -3.8183639741790477e-09 -8.2535839948488469e-10 0.0000000000000000e+00  -3.8395033331097292e-09 -4.0135174855981326e-10 0.0000000000000000e+00  -3.8451442121999325e-09 5.6948136800539032e-14 0.0000000000000000e+00  -3.8393840408018389e-09 4.0144572738107783e-10 0.0000000000000000e+00  -3.8180468052892012e-09 8.2542548954707320e-10 0.0000000000000000e+00  -3.7677567382833386e-09 1.2940753557474392e-09 0.0000000000000000e+00  -3.6629671101499906e-09 1.8268769314222378e-09 0.0000000000000000e+00  -3.4622647183382259e-09 2.4348271157879934e-09 0.0000000000000000e+00  -3.1070172952603559e-09 3.1076525862922997e-09 0.0000000000000000e+00  -2.5310026639961818e-09 3.7944679085678021e-09 0.0000000000000000e+00  -1.6935241139508004e-09 4.3685987800384068e-09 0.0000000000000000e+00  -6.6437353368244323e-10 4.2082475381466241e-09 0.0000000000000000e+00  3.0103273253215205e-13 4.4575915615219141e-12 0.0000000000000000e+00  3.1719265784481149e-13 -2.6653952172781333e-12 0.0000000000000000e+00  -4.9551154141333570e-10 -3.3211362533777515e-09 0.0000000000000000e+00  -1.2889614716485366e-09 -3.5075737315667376e-09 0.0000000000000000e+00  -1.9827611619578423e-09 -3.1381430461760055e-09 0.0000000000000000e+00  -2.5147871353617653e-09 -2.6539169901742724e-09 0.0000000000000000e+00  -2.8905714249311293e-09 -2.1436457765808588e-09 0.0000000000000000e+00  -3.1407046819651535e-09 -1.6517529655851586e-09 0.0000000000000000e+00  -3.2989059934645726e-09 -1.1948746547305746e-09 0.0000000000000000e+00  -3.3925168251954649e-09 -7.7341323667509208e-10 0.0000000000000000e+00  -3.4411786031120246e-09 -3.7938536499918600e-10 0.0000000000000000e+00  -3.4562104231150528e-09 1.2084132816996677e-15 0.0000000000000000e+00  -3.4411255684281273e-09 3.7940153817369609e-10 0.0000000000000000e+00  -3.3923434692204636e-09 7.7340971264175801e-10 0.0000000000000000e+00  -3.2986472985308097e-09 1.1948532751699359e-09 0.0000000000000000e+00  -3.1404641467562449e-09 1.6519641857794542e-09 0.0000000000000000e+00  -2.8898127417814606e-09 2.1435201458418666e-09 0.0000000000000000e+00  -2.5132949439790252e-09 2.6517631968675627e-09 0.0000000000000000e+00  -1.9816049214272069e-09 3.1343751773698801e-09 0.0000000000000000e+00  -1.2882837543324478e-09 3.5086664005256701e-09 0.0000000000000000e+00  -4.9492311994301876e-10 3.3248416987404111e-09 0.0000000000000000e+00  2.9218395757502009e-13 3.3080052710275991e-12 0.0000000000000000e+00  2.5540769755066772e-13 -2.0761371257702881e-12 0.0000000000000000e+00  -3.8833809166355306e-10 -2.6387659579090840e-09 0.0000000000000000e+00  -1.0231479693306556e-09 -2.8159777101931131e-09 0.0000000000000000e+00  -1.6035178670738007e-09 -2.5643330113979939e-09 0.0000000000000000e+00  -2.0791781654345902e-09 -2.2169240764068550e-09 0.0000000000000000e+00  -2.4441810820777031e-09 -1.8319182475648738e-09 0.0000000000000000e+00  -2.7097130800267947e-09 -1.4401822853943561e-09 0.0000000000000000e+00  -2.8927499870889770e-09 -1.0586141306486642e-09 0.0000000000000000e+00  -3.0102354948865692e-09 -6.9333301311240891e-10 0.0000000000000000e+00  -3.0753641830643179e-09 -3.4258045347180835e-10 0.0000000000000000e+00  -3.0961512022220518e-09 -4.8771767126519841e-14 0.0000000000000000e+00  -3.0753002386954850e-09 3.4248389858945744e-10 0.0000000000000000e+00  -3.0101158072378604e-09 6.9323808801870003e-10 0.0000000000000000e+00  -2.8924987671140994e-09 1.0584300183655216e-09 0.0000000000000000e+00  -2.7093041719809651e-09 1.4397695595474176e-09 0.0000000000000000e+00  -2.4436733106292013e-09 1.8312765818664114e-09 0.0000000000000000e+00  -2.0785165503779236e-09 2.2158218638866573e-09 0.0000000000000000e+00  -1.6030933641921191e-09 2.5625780834470851e-09 0.0000000000000000e+00  -1.0230997423150339e-09 2.8177064174317621e-09 0.0000000000000000e+00  -3.8825226929209786e-10 2.6413906852334297e-09 0.0000000000000000e+00  2.4271293410839340e-13 2.5603092719262926e-12 0.0000000000000000e+00  2.1197765368947317e-13 -1.6130133696684628e-12 0.0000000000000000e+00  -3.1673467284058974e-10 -2.0898680746473834e-09 0.0000000000000000e+00  -8.4124482026949560e-10 -2.2452862512303458e-09 0.0000000000000000e+00  -1.3347174087431296e-09 -2.0693639975666406e-09 0.0000000000000000e+00  -1.7570451296932414e-09 -1.8162290822685992e-09 0.0000000000000000e+00  -2.0984503069678312e-09 -1.5244662898249264e-09 0.0000000000000000e+00  -2.3607647269778801e-09 -1.2159601791985825e-09 0.0000000000000000e+00  -2.5514365099556023e-09 -9.0485385322977418e-10 0.0000000000000000e+00  -2.6795602729220738e-09 -5.9811736361623183e-10 0.0000000000000000e+00  -2.7529667681826446e-09 -2.9721084420073093e-10 0.0000000000000000e+00  -2.7768181277417561e-09 -8.7663225053923220e-14 0.0000000000000000e+00  -2.7529052392635938e-09 2.9702258718274002e-10 0.0000000000000000e+00  -2.6794351601893126e-09 5.9789547504550804e-10 0.0000000000000000e+00  -2.5512370250321168e-09 9.0456627488709591e-10 0.0000000000000000e+00  -2.3604549305199433e-09 1.2154815436856296e-09 0.0000000000000000e+00  -2.0980817499697306e-09 1.5236078517375760e-09 0.0000000000000000e+00  -1.7567352860466141e-09 1.8149588960718280e-09 0.0000000000000000e+00  -1.3347204767527555e-09 2.0680903191296089e-09 0.0000000000000000e+00  -8.4148649960993769e-10 2.2472908927970550e-09 0.0000000000000000e+00  -3.1673735028133495e-10 2.0923248633041620e-09 0.0000000000000000e+00  2.0375621995625877e-13 1.9932074607835137e-12 0.0000000000000000e+00  1.8169699689379989e-13 -1.2347179138105241e-12 0.0000000000000000e+00  -2.6707014739569777e-10 -1.6332096571382962e-09 0.0000000000000000e+00  -7.1324191974380178e-10 -1.7625638240824207e-09 0.0000000000000000e+00  -1.1409788598077111e-09 -1.6374814385268253e-09 0.0000000000000000e+00  -1.5175563934026303e-09 -1.4519008387310317e-09 0.0000000000000000e+00  -1.8326201838041956e-09 -1.2321901017052087e-09 0.0000000000000000e+00  -2.0836466924323456e-09 -9.9330995784606571e-10 0.0000000000000000e+00  -2.2724983319864163e-09 -7.4591957636350882e-10 0.0000000000000000e+00  -2.4031163633597601e-09 -4.9646137162650950e-10 0.0000000000000000e+00  -2.4795395608827179e-09 -2.4777218197128597e-10 0.0000000000000000e+00  -2.5046546820967918e-09 -1.2607161227066492e-13 0.0000000000000000e+00  -2.4794885014133903e-09 2.4750725790696081e-10 0.0000000000000000e+00  -2.4030079363381884e-09 4.9614954418489481e-10 0.0000000000000000e+00  -2.2723358146489376e-09 7.4551698176489873e-10 0.0000000000000000e+00  -2.0834426557815591e-09 9.9276686826779114e-10 0.0000000000000000e+00  -1.8324271966429094e-09 1.2314408424192054e-09 0.0000000000000000e+00  -1.5174481263938487e-09 1.4509300233613425e-09 0.0000000000000000e+00  -1.1411078390827842e-09 1.6366067295080750e-09 0.0000000000000000e+00  -7.1353863351147703e-10 1.7645234776379076e-09 0.0000000000000000e+00  -2.6711783997328517e-10 1.6354135150230896e-09 0.0000000000000000e+00  1.7733921066349875e-13 1.5454862314067644e-12 0.0000000000000000e+00  1.6012167748059895e-13 -9.1423879029288654e-13 0.0000000000000000e+00  -2.3213604012953372e-10 -1.2414151383808687e-09 0.0000000000000000e+00  -6.2227575996375447e-10 -1.3437458500053187e-09 0.0000000000000000e+00  -1.0009732961944298e-09 -1.2551852637700856e-09 0.0000000000000000e+00  -1.3407237707909560e-09 -1.1207449269067468e-09 0.0000000000000000e+00  -1.6315900075546808e-09 -9.5848949075584049e-10 0.0000000000000000e+00  -1.8690205881846411e-09 -7.7846456677147685e-10 0.0000000000000000e+00  -2.0517792455991165e-09 -5.8840568718188051e-10 0.0000000000000000e+00  -2.1806467779509690e-09 -3.9360884438892262e-10 0.0000000000000000e+00  -2.2571058852122972e-09 -1.9708847524498608e-10 0.0000000000000000e+00  -2.2824185033481331e-09 -1.5764820981209782e-13 0.0000000000000000e+00  -2.2570648133083864e-09 1.9676044327801833e-10 0.0000000000000000e+00  -2.1805656645817800e-09 3.9323960028548656e-10 0.0000000000000000e+00  -2.0516650904653851e-09 5.8795906940181121e-10 0.0000000000000000e+00  -1.8688929995970616e-09 7.7790277941352900e-10 0.0000000000000000e+00  -1.6315006119634499e-09 9.5779410240175853e-10 0.0000000000000000e+00  -1.3407215294758172e-09 1.1199593018946209e-09 0.0000000000000000e+00  -1.0011351735610672e-09 1.2545872646725881e-09 0.0000000000000000e+00  -6.2254415927259042e-10 1.3456369124822880e-09 0.0000000000000000e+00  -2.3218963449604957e-10 1.2433918438969216e-09 0.0000000000000000e+00  1.5745453637632282e-13 1.1780714553800361e-12 0.0000000000000000e+00  1.4498432411919093e-13 -6.3311671198673792e-13 0.0000000000000000e+00  -2.0783510526360097e-10 -8.9530098015597154e-10 0.0000000000000000e+00  -5.5856194814209701e-10 -9.7102699011800883e-10 0.0000000000000000e+00  -9.0178968760182836e-10 -9.1043772561446213e-10 0.0000000000000000e+00  -1.2135681421818427e-09 -8.1675039573443061e-10 0.0000000000000000e+00  -1.4845714266593086e-09 -7.0215426993416510e-10 0.0000000000000000e+00  -1.7093677892915913e-09 -5.7321550834007812e-10 0.0000000000000000e+00  -1.8850555579492387e-09 -4.3524996801935277e-10 0.0000000000000000e+00  -2.0105367191918601e-09 -2.9220408952604035e-10 0.0000000000000000e+00  -2.0856779923804969e-09 -1.4666903017357511e-10 0.0000000000000000e+00  -2.1106774912273369e-09 -1.8071359105867720e-13 0.0000000000000000e+00  -2.0856483315013989e-09 1.4629564854501857e-10 0.0000000000000000e+00  -2.0104808588467038e-09 2.9179518996501454e-10 0.0000000000000000e+00  -1.8849833091886193e-09 4.3478312721053078e-10 0.0000000000000000e+00  -1.7092970020631727e-09 5.7267254375826346e-10 0.0000000000000000e+00  -1.4845389708807946e-09 7.0153356063217174e-10 0.0000000000000000e+00  -1.2136040534984916e-09 8.1610206945527409e-10 0.0000000000000000e+00  -9.0193420757845755e-10 9.1000576456858354e-10 0.0000000000000000e+00  -5.5877397831078890e-10 9.7283545309552422e-10 0.0000000000000000e+00  -2.0788076546069365e-10 8.9711144973482271e-10 0.0000000000000000e+00  1.4338337458749655e-13 8.6497049297914843e-13 0.0000000000000000e+00  1.3490540701852892e-13 -3.7780461908640145e-13 0.0000000000000000e+00  -1.9179147358908870e-10 -5.8042447699065587e-10 0.0000000000000000e+00  -5.1631064119097889e-10 -6.3031464227814325e-10 0.0000000000000000e+00  -8.3551219132606593e-10 -5.9259220929881227e-10 0.0000000000000000e+00  -1.1277422228691928e-09 -5.3323179756864547e-10 0.0000000000000000e+00  -1.3842014789086688e-09 -4.5996368755178478e-10 0.000000000000