<?xml version="1.0"?>
<VTKFile type="UnstructuredGrid"  version="0.1"  >
<UnstructuredGrid>
<Piece  NumberOfPoints="651" NumberOfCells="1200">
<Points>
<DataArray  type="Float64"  NumberOfComponents="3"  format="ascii">0 0 0  50000 0 0  100000 0 0  150000 0 0  200000 0 0  250000 0 0  300000 0 0  350000 0 0  400000 0 0  450000 0 0  500000 0 0  550000 0 0  600000 0 0  650000 0 0  700000 0 0  750000 0 0  800000 0 0  850000 0 0  900000 0 0  950000 0 0  1000000 0 0  0 50000 0  50000 50000 0  100000 50000 0  150000 50000 0  200000 50000 0  250000 50000 0  300000 50000 0  350000 50000 0  400000 50000 0  450000 50000 0  500000 50000 0  550000 50000 0  600000 50000 0  650000 50000 0  700000 50000 0  750000 50000 0  800000 50000 0  850000 50000 0  900000 50000 0  950000 50000 0  1000000 50000 0  0 100000 0  50000 100000 0  100000 100000 0  150000 100000 0  200000 100000 0  250000 100000 0  300000 100000 0  350000 100000 0  400000 100000 0  450000 100000 0  500000 100000 0  550000 100000 0  600000 100000 0  650000 100000 0  700000 100000 0  750000 100000 0  800000 100000 0  850000 100000 0  900000 100000 0  950000 100000 0  1000000 100000 0  0 150000 0  50000 150000 0  100000 150000 0  150000 150000 0  200000 150000 0  250000 150000 0  300000 150000 0  350000 150000 0  400000 150000 0  450000 150000 0  500000 150000 0  550000 150000 0  600000 150000 0  650000 150000 0  700000 150000 0  750000 150000 0  800000 150000 0  850000 150000 0  900000 150000 0  950000 150000 0  1000000 150000 0  0 200000 0  50000 200000 0  100000 200000 0  150000 200000 0  200000 200000 0  250000 200000 0  300000 200000 0  350000 200000 0  400000 200000 0  450000 200000 0  500000 200000 0  550000 200000 0  600000 200000 0  650000 200000 0  700000 200000 0  750000 200000 0  800000 200000 0  850000 200000 0  900000 200000 0  950000 200000 0  1000000 200000 0  0 250000 0  50000 250000 0  100000 250000 0  150000 250000 0  200000 250000 0  250000 250000 0  300000 250000 0  350000 250000 0  400000 250000 0  450000 250000 0  500000 250000 0  550000 250000 0  600000 250000 0  650000 250000 0  700000 250000 0  750000 250000 0  800000 250000 0  850000 250000 0  900000 250000 0  950000 250000 0  1000000 250000 0  0 300000 0  50000 300000 0  100000 300000 0  150000 300000 0  200000 300000 0  250000 300000 0  300000 300000 0  350000 300000 0  400000 300000 0  450000 300000 0  500000 300000 0  550000 300000 0  600000 300000 0  650000 300000 0  700000 300000 0  750000 300000 0  800000 300000 0  850000 300000 0  900000 300000 0  950000 300000 0  1000000 300000 0  0 350000 0  50000 350000 0  100000 350000 0  150000 350000 0  200000 350000 0  250000 350000 0  300000 350000 0  350000 350000 0  400000 350000 0  450000 350000 0  500000 350000 0  550000 350000 0  600000 350000 0  650000 350000 0  700000 350000 0  750000 350000 0  800000 350000 0  850000 350000 0  900000 350000 0  950000 350000 0  1000000 350000 0  0 400000 0  50000 400000 0  100000 400000 0  150000 400000 0  200000 400000 0  250000 400000 0  300000 400000 0  350000 400000 0  400000 400000 0  450000 400000 0  500000 400000 0  550000 400000 0  600000 400000 0  650000 400000 0  700000 400000 0  750000 400000 0  800000 400000 0  850000 400000 0  900000 400000 0  950000 400000 0  1000000 400000 0  0 450000 0  50000 450000 0  100000 450000 0  150000 450000 0  200000 450000 0  250000 450000 0  300000 450000 0  350000 450000 0  400000 450000 0  450000 450000 0  500000 450000 0  550000 450000 0  600000 450000 0  650000 450000 0  700000 450000 0  750000 450000 0  800000 450000 0  850000 450000 0  900000 450000 0  950000 450000 0  1000000 450000 0  0 500000 0  50000 500000 0  100000 500000 0  150000 500000 0  200000 500000 0  250000 500000 0  300000 500000 0  350000 500000 0  400000 500000 0  450000 500000 0  500000 500000 0  550000 500000 0  600000 500000 0  650000 500000 0  700000 500000 0  750000 500000 0  800000 500000 0  850000 500000 0  900000 500000 0  950000 500000 0  1000000 500000 0  0 550000 0  50000 550000 0  100000 550000 0  150000 550000 0  200000 550000 0  250000 550000 0  300000 550000 0  350000 550000 0  400000 550000 0  450000 550000 0  500000 550000 0  550000 550000 0  600000 550000 0  650000 550000 0  700000 550000 0  750000 550000 0  800000 550000 0  850000 550000 0  900000 550000 0  950000 550000 0  1000000 550000 0  0 600000 0  50000 600000 0  100000 600000 0  150000 600000 0  200000 600000 0  250000 600000 0  300000 600000 0  350000 600000 0  400000 600000 0  450000 600000 0  500000 600000 0  550000 600000 0  600000 600000 0  650000 600000 0  700000 600000 0  750000 600000 0  800000 600000 0  850000 600000 0  900000 600000 0  950000 600000 0  1000000 600000 0  0 650000 0  50000 650000 0  100000 650000 0  150000 650000 0  200000 650000 0  250000 650000 0  300000 650000 0  350000 650000 0  400000 650000 0  450000 650000 0  500000 650000 0  550000 650000 0  600000 650000 0  650000 650000 0  700000 650000 0  750000 650000 0  800000 650000 0  850000 650000 0  900000 650000 0  950000 650000 0  1000000 650000 0  0 700000 0  50000 700000 0  100000 700000 0  150000 700000 0  200000 700000 0  250000 700000 0  300000 700000 0  350000 700000 0  400000 700000 0  450000 700000 0  500000 700000 0  550000 700000 0  600000 700000 0  650000 700000 0  700000 700000 0  750000 700000 0  800000 700000 0  850000 700000 0  900000 700000 0  950000 700000 0  1000000 700000 0  0 750000 0  50000 750000 0  100000 750000 0  150000 750000 0  200000 750000 0  250000 750000 0  300000 750000 0  350000 750000 0  400000 750000 0  450000 750000 0  500000 750000 0  550000 750000 0  600000 750000 0  650000 750000 0  700000 750000 0  750000 750000 0  800000 750000 0  850000 750000 0  900000 750000 0  950000 750000 0  1000000 750000 0  0 800000 0  50000 800000 0  100000 800000 0  150000 800000 0  200000 800000 0  250000 800000 0  300000 800000 0  350000 800000 0  400000 800000 0  450000 800000 0  500000 800000 0  550000 800000 0  600000 800000 0  650000 800000 0  700000 800000 0  750000 800000 0  800000 800000 0  850000 800000 0  900000 800000 0  950000 800000 0  1000000 800000 0  0 850000 0  50000 850000 0  100000 850000 0  150000 850000 0  200000 850000 0  250000 850000 0  300000 850000 0  350000 850000 0  400000 850000 0  450000 850000 0  500000 850000 0  550000 850000 0  600000 850000 0  650000 850000 0  700000 850000 0  750000 850000 0  800000 850000 0  850000 850000 0  900000 850000 0  950000 850000 0  1000000 850000 0  0 900000 0  50000 900000 0  100000 900000 0  150000 900000 0  200000 900000 0  250000 900000 0  300000 900000 0  350000 900000 0  400000 900000 0  450000 900000 0  500000 900000 0  550000 900000 0  600000 900000 0  650000 900000 0  700000 900000 0  750000 900000 0  800000 900000 0  850000 900000 0  900000 900000 0  950000 900000 0  1000000 900000 0  0 950000 0  50000 950000 0  100000 950000 0  150000 950000 0  200000 950000 0  250000 950000 0  300000 950000 0  350000 950000 0  400000 950000 0  450000 950000 0  500000 950000 0  550000 950000 0  600000 950000 0  650000 950000 0  700000 950000 0  750000 950000 0  800000 950000 0  850000 950000 0  900000 950000 0  950000 950000 0  1000000 950000 0  0 1000000 0  50000 1000000 0  100000 1000000 0  150000 1000000 0  200000 1000000 0  250000 1000000 0  300000 1000000 0  350000 1000000 0  400000 1000000 0  450000 1000000 0  500000 1000000 0  550000 1000000 0  600000 1000000 0  650000 1000000 0  700000 1000000 0  750000 1000000 0  800000 1000000 0  850000 1000000 0  900000 1000000 0  950000 1000000 0  1000000 1000000 0  0 1050000 0  50000 1050000 0  100000 1050000 0  150000 1050000 0  200000 1050000 0  250000 1050000 0  300000 1050000 0  350000 1050000 0  400000 1050000 0  450000 1050000 0  500000 1050000 0  550000 1050000 0  600000 1050000 0  650000 1050000 0  700000 1050000 0  750000 1050000 0  800000 1050000 0  850000 1050000 0  900000 1050000 0  950000 1050000 0  1000000 1050000 0  0 1100000 0  50000 1100000 0  100000 1100000 0  150000 1100000 0  200000 1100000 0  250000 1100000 0  300000 1100000 0  350000 1100000 0  400000 1100000 0  450000 1100000 0  500000 1100000 0  550000 1100000 0  600000 1100000 0  650000 1100000 0  700000 1100000 0  750000 1100000 0  800000 1100000 0  850000 1100000 0  900000 1100000 0  950000 1100000 0  1000000 1100000 0  0 1150000 0  50000 1150000 0  100000 1150000 0  150000 1150000 0  200000 1150000 0  250000 1150000 0  300000 1150000 0  350000 1150000 0  400000 1150000 0  450000 1150000 0  500000 1150000 0  550000 1150000 0  600000 1150000 0  650000 1150000 0  700000 1150000 0  750000 1150000 0  800000 1150000 0  850000 1150000 0  900000 1150000 0  950000 1150000 0  1000000 1150000 0  0 1200000 0  50000 1200000 0  100000 1200000 0  150000 1200000 0  200000 1200000 0  250000 1200000 0  300000 1200000 0  350000 1200000 0  400000 1200000 0  450000 1200000 0  500000 1200000 0  550000 1200000 0  600000 1200000 0  650000 1200000 0  700000 1200000 0  750000 1200000 0  800000 1200000 0  850000 1200000 0  900000 1200000 0  950000 1200000 0  1000000 1200000 0  0 1250000 0  50000 1250000 0  100000 1250000 0  150000 1250000 0  200000 1250000 0  250000 1250000 0  300000 1250000 0  350000 1250000 0  400000 1250000 0  450000 1250000 0  500000 1250000 0  550000 1250000 0  600000 1250000 0  650000 1250000 0  700000 1250000 0  750000 1250000 0  800000 1250000 0  850000 1250000 0  900000 1250000 0  950000 1250000 0  1000000 1250000 0  0 1300000 0  50000 1300000 0  100000 1300000 0  150000 1300000 0  200000 1300000 0  250000 1300000 0  300000 1300000 0  350000 1300000 0  400000 1300000 0  450000 1300000 0  500000 1300000 0  550000 1300000 0  600000 1300000 0  650000 1300000 0  700000 1300000 0  750000 1300000 0  800000 1300000 0  850000 1300000 0  900000 1300000 0  950000 1300000 0  1000000 1300000 0  0 1350000 0  50000 1350000 0  100000 1350000 0  150000 1350000 0  200000 1350000 0  250000 1350000 0  300000 1350000 0  350000 1350000 0  400000 1350000 0  450000 1350000 0  500000 1350000 0  550000 1350000 0  600000 1350000 0  650000 1350000 0  700000 135
[...]
<PointData  Vectors="f_25021"> 
<DataArray  type="Float64"  Name="f_25021"  NumberOfComponents="3" format="ascii">-1.1583638851912279e-10 -8.0338940419499076e-11 0.0000000000000000e+00  7.9917572954272888e-08 -7.0348742851647069e-11 0.0000000000000000e+00  7.9988199457611570e-08 -1.9005266839377757e-12 0.0000000000000000e+00  7.9978651456886920e-08 -2.4979435496595112e-13 0.0000000000000000e+00  7.9987044210619058e-08 -6.0207378907453026e-13 0.0000000000000000e+00  7.9989134950077244e-08 -2.2051835820860741e-14 0.0000000000000000e+00  7.9990522319773656e-08 -4.4598220358392572e-14 0.0000000000000000e+00  7.9991420528408368e-08 -1.5005743539705932e-14 0.0000000000000000e+00  7.9991921910309482e-08 3.9818915281573663e-15 0.0000000000000000e+00  7.9992163752473010e-08 1.8106018871526661e-14 0.0000000000000000e+00  7.9992180846465551e-08 3.5427361884749626e-14 0.0000000000000000e+00  7.9991974799102348e-08 5.9892234808430234e-14 0.0000000000000000e+00  7.9991512973336276e-08 9.3968781103720001e-14 0.0000000000000000e+00  7.9990723106163767e-08 1.5464391939423304e-13 0.0000000000000000e+00  7.9989335603011358e-08 3.4879362711250159e-13 0.0000000000000000e+00  7.9987362954039814e-08 1.9267114651009087e-13 0.0000000000000000e+00  7.9983682703767166e-08 2.1735442964608574e-12 0.0000000000000000e+00  7.9966792976037181e-08 7.9299406013923307e-12 0.0000000000000000e+00  7.9989448636829823e-08 -2.8309899366238937e-11 0.0000000000000000e+00  7.9525812642120020e-08 4.3570349170385205e-10 0.0000000000000000e+00  -6.1730675146549439e-10 5.5828964089983932e-10 0.0000000000000000e+00  -9.1566384656862309e-11 -7.4270396308499971e-11 0.0000000000000000e+00  -1.4579278881500692e-08 -1.2513945855604341e-08 0.0000000000000000e+00  -5.0808370169232173e-09 -4.0198529175863454e-09 0.0000000000000000e+00  -4.4339305881358697e-09 -1.8302446528430004e-09 0.0000000000000000e+00  -2.1009586592393818e-09 -9.9792388285160189e-10 0.0000000000000000e+00  -1.2078142654724240e-09 -5.7620863162723975e-10 0.0000000000000000e+00  -5.9842569768660480e-10 -3.6853884835389527e-10 0.0000000000000000e+00  -2.0932188467686559e-10 -2.3802906378261459e-10 0.0000000000000000e+00  2.9028602117160534e-11 -1.4814971652923035e-10 0.0000000000000000e+00  1.5956525271830162e-10 -7.8922818914838682e-11 0.0000000000000000e+00  2.0071651507066745e-10 -1.8294500529309713e-11 0.0000000000000000e+00  1.5808863452716300e-10 4.2451160169087560e-11 0.0000000000000000e+00  2.5868106063780969e-11 1.1206520621830215e-10 0.0000000000000000e+00  -2.1508014348558199e-10 2.0244596620095019e-10 0.0000000000000000e+00  -6.0129030745930579e-10 3.3419281029995654e-10 0.0000000000000000e+00  -1.2164280573731134e-09 5.4740031765501510e-10 0.0000000000000000e+00  -2.2210300058504087e-09 9.3667468827369189e-10 0.0000000000000000e+00  -3.5858685892310209e-09 1.8404627882548554e-09 0.0000000000000000e+00  -8.1702857542414536e-09 3.9716072062598610e-09 0.0000000000000000e+00  -1.0597325086255436e-08 1.1892829632985385e-08 0.0000000000000000e+00  -4.5727537608137412e-10 4.4668734236174130e-10 0.0000000000000000e+00  -1.1014890929853477e-11 -1.6703697445532544e-11 0.0000000000000000e+00  -4.6300148089996925e-09 -8.8798941697051570e-09 0.0000000000000000e+00  -6.0328960372685936e-09 -6.2126322539288674e-09 0.0000000000000000e+00  -5.8301351882432183e-09 -3.4884550436997849e-09 0.0000000000000000e+00  -4.7162939008762168e-09 -1.9675451159065781e-09 0.0000000000000000e+00  -4.1993268217536913e-09 -1.2228212174273988e-09 0.0000000000000000e+00  -3.7120371006945788e-09 -7.8006187737357623e-10 0.0000000000000000e+00  -3.3993244180752331e-09 -4.9256247829267232e-10 0.0000000000000000e+00  -3.1968161047790841e-09 -2.8946147854849797e-10 0.0000000000000000e+00  -3.0829157754614372e-09 -1.2957761935373793e-10 0.0000000000000000e+00  -3.0461144866720715e-09 1.1540063796762371e-11 0.0000000000000000e+00  -3.0823894066578117e-09 1.5264289767306385e-10 0.0000000000000000e+00  -3.1954145857561058e-09 3.1245672902615922e-10 0.0000000000000000e+00  -3.3969351626614011e-09 5.1537880871960238e-10 0.0000000000000000e+00  -3.7094420460358331e-09 8.0045679776637821e-10 0.0000000000000000e+00  -4.1667224443685554e-09 1.2397720203305923e-09 0.0000000000000000e+00  -4.7859252449176526e-09 1.9809403691202494e-09 0.0000000000000000e+00  -5.7096422499189864e-09 3.3538194430149806e-09 0.0000000000000000e+00  -6.1291287450453721e-09 6.0294057369206781e-09 0.0000000000000000e+00  -3.9121014401285959e-09 1.1654331457827425e-08 0.0000000000000000e+00  1.1845255167347334e-11 6.4157681104899260e-12 0.0000000000000000e+00  -5.6605221424821519e-13 -1.7973064368946453e-11 0.0000000000000000e+00  -2.0318264118282304e-09 -7.2652017967754645e-09 0.0000000000000000e+00  -3.9294375134711968e-09 -5.5111956693415085e-09 0.0000000000000000e+00  -4.2390617351435845e-09 -3.6186690174009502e-09 0.0000000000000000e+00  -4.2007392905820784e-09 -2.4258840191463736e-09 0.0000000000000000e+00  -3.9825273094654781e-09 -1.6350132199330193e-09 0.0000000000000000e+00  -3.7238917661670761e-09 -1.0896834721715696e-09 0.0000000000000000e+00  -3.5345442636501090e-09 -7.1336557700464980e-10 0.0000000000000000e+00  -3.3976561455620652e-09 -4.3237948616050601e-10 0.0000000000000000e+00  -3.3172880505674678e-09 -2.0409020570093894e-10 0.0000000000000000e+00  -3.2906676438116888e-09 4.9233541169299956e-13 0.0000000000000000e+00  -3.3165238674748046e-09 2.0502324412657626e-10 0.0000000000000000e+00  -3.3958690441789000e-09 4.3307147220856409e-10 0.0000000000000000e+00  -3.5312718321526094e-09 7.1371255877795029e-10 0.0000000000000000e+00  -3.7239779371473334e-09 1.0890438748977228e-09 0.0000000000000000e+00  -3.9641452518623516e-09 1.6261041209538476e-09 0.0000000000000000e+00  -4.2161326959013983e-09 2.4347589637129461e-09 0.0000000000000000e+00  -4.2957342660384908e-09 3.6724241952133156e-09 0.0000000000000000e+00  -3.7677599444527107e-09 5.5219643127247278e-09 0.0000000000000000e+00  -2.0496791121035677e-09 6.7591998798808544e-09 0.0000000000000000e+00  -4.2818816206364252e-12 2.9183657726342799e-11 0.0000000000000000e+00  -5.2325993717183154e-13 -1.1605783431300049e-11 0.0000000000000000e+00  -1.1401611447240752e-09 -5.0320089504271771e-09 0.0000000000000000e+00  -2.3881134910359887e-09 -4.3409690905238080e-09 0.0000000000000000e+00  -3.0440193458353456e-09 -3.3818198818312316e-09 0.0000000000000000e+00  -3.3195431801948966e-09 -2.4860752630274464e-09 0.0000000000000000e+00  -3.3348107723900303e-09 -1.7674522592668951e-09 0.0000000000000000e+00  -3.2771220256862011e-09 -1.2361932146260614e-09 0.0000000000000000e+00  -3.2011783577312136e-09 -8.3399935105409757e-10 0.0000000000000000e+00  -3.1338370129434293e-09 -5.1491618777280286e-10 0.0000000000000000e+00  -3.0906399121813400e-09 -2.4600393765207296e-10 0.0000000000000000e+00  -3.0756386635948870e-09 -4.4565575475891836e-13 0.0000000000000000e+00  -3.0900266642965266e-09 2.4502384707488916e-10 0.0000000000000000e+00  -3.1326547264187502e-09 5.1359178185162452e-10 0.0000000000000000e+00  -3.1988681902045541e-09 8.3195465564175935e-10 0.0000000000000000e+00  -3.2763210830682982e-09 1.2340007474131938e-09 0.0000000000000000e+00  -3.3358195067933974e-09 1.7636141759662263e-09 0.0000000000000000e+00  -3.3086096520983675e-09 2.4710397827388914e-09 0.0000000000000000e+00  -3.0586041352752440e-09 3.3890918923640932e-09 0.0000000000000000e+00  -2.3751358534072137e-09 4.3817266517577080e-09 0.0000000000000000e+00  -1.1313779807239503e-09 5.0879247383518459e-09 0.0000000000000000e+00  -2.6867135470489637e-12 1.5495627482680044e-11 0.0000000000000000e+00  -1.0412995838784643e-13 -8.5243927496836044e-12 0.0000000000000000e+00  -7.2146275010110696e-10 -3.8404587665597834e-09 0.0000000000000000e+00  -1.6252462652882120e-09 -3.5497579744309768e-09 0.0000000000000000e+00  -2.2473992508382600e-09 -2.9326420619270231e-09 0.0000000000000000e+00  -2.5997693686623392e-09 -2.2854031629752711e-09 0.0000000000000000e+00  -2.7657128612229707e-09 -1.7224908266043329e-09 0.0000000000000000e+00  -2.8305634755927668e-09 -1.2559156767962432e-09 0.0000000000000000e+00  -2.8415823499575697e-09 -8.7053018282459552e-10 0.0000000000000000e+00  -2.8334783394841281e-09 -5.4720398705241739e-10 0.0000000000000000e+00  -2.8233055158975512e-09 -2.6397518066710254e-10 0.0000000000000000e+00  -2.8189618168854472e-09 -1.3051298953883166e-13 0.0000000000000000e+00  -2.8229208976623126e-09 2.6364219151238934e-10 0.0000000000000000e+00  -2.8328430404627656e-09 5.4667000561555809e-10 0.0000000000000000e+00  -2.8406650140584163e-09 8.6951446545566812e-10 0.0000000000000000e+00  -2.8293948305273129e-09 1.2543436813574287e-09 0.0000000000000000e+00  -2.7669908488774676e-09 1.7226084680456935e-09 0.0000000000000000e+00  -2.5986095047676592e-09 2.2859834789461312e-09 0.0000000000000000e+00  -2.2440716256019399e-09 2.9199820516251141e-09 0.0000000000000000e+00  -1.6223664104389014e-09 3.5321070914547429e-09 0.0000000000000000e+00  -7.2950684305557104e-10 3.8622759931759084e-09 0.0000000000000000e+00  -2.4101999714768048e-13 1.0619132792143437e-11 0.0000000000000000e+00  -6.6567654818419214e-14 -6.5947018910680271e-12 0.0000000000000000e+00  -5.1064805106600398e-10 -3.0062606530709917e-09 0.0000000000000000e+00  -1.1862072608464483e-09 -2.8471888721336922e-09 0.0000000000000000e+00  -1.7122555090572578e-09 -2.4586966985229189e-09 0.0000000000000000e+00  -2.0757425709125003e-09 -2.0152657756335071e-09 0.0000000000000000e+00  -2.3027200204071546e-09 -1.5831075876955992e-09 0.0000000000000000e+00  -2.4331724639650952e-09 -1.1907894679392111e-09 0.0000000000000000e+00  -2.5026716470624576e-09 -8.4557756774883284e-10 0.0000000000000000e+00  -2.5373050596592120e-09 -5.4050716900868011e-10 0.0000000000000000e+00  -2.5524253647396242e-09 -2.6332020895208772e-10 0.0000000000000000e+00  -2.5565152646398663e-09 -2.8636550682550546e-13 0.0000000000000000e+00  -2.5522227977614691e-09 2.6269317809778248e-10 0.0000000000000000e+00  -2.5369632720243605e-09 5.3974835479068984e-10 0.0000000000000000e+00  -2.5023772325079294e-09 8.4463915743635353e-10 0.0000000000000000e+00  -2.4326705383588496e-09 1.1894529918693208e-09 0.0000000000000000e+00  -2.3024311073624408e-09 1.5810829096012382e-09 0.0000000000000000e+00  -2.0759419543407460e-09 2.0137442059254936e-09 0.0000000000000000e+00  -1.7126180269679524e-09 2.4578571749457009e-09 0.0000000000000000e+00  -1.1851822433578864e-09 2.8449543151048080e-09 0.0000000000000000e+00  -5.1603772559399003e-10 3.0161283440619172e-09 0.0000000000000000e+00  -3.4580670102762821e-13 8.1838626609302803e-12 0.0000000000000000e+00  -4.3448134795502737e-14 -5.1513481725018168e-12 0.0000000000000000e+00  -3.8514615267191681e-10 -2.3837257300543716e-09 0.0000000000000000e+00  -9.1051289839912571e-10 -2.2985304683533768e-09 0.0000000000000000e+00  -1.3526380556741372e-09 -2.0428762015554849e-09 0.0000000000000000e+00  -1.6923763443743928e-09 -1.7265391190701215e-09 0.0000000000000000e+00  -1.9332822901450807e-09 -1.3957968494652609e-09 0.0000000000000000e+00  -2.0948679301750284e-09 -1.0768730332909133e-09 0.0000000000000000e+00  -2.1979334387847072e-09 -7.8007014339133409e-10 0.0000000000000000e+00  -2.2595841121192877e-09 -5.0565864342753963e-10 0.0000000000000000e+00  -2.2918974804598982e-09 -2.4842489550643295e-10 0.0000000000000000e+00  -2.3018835660930526e-09 -3.7450541107278554e-13 0.0000000000000000e+00  -2.2918066814092824e-09 2.4764331745793779e-10 0.0000000000000000e+00  -2.2594246721120865e-09 5.0478020605239012e-10 0.0000000000000000e+00  -2.1977824264258226e-09 7.7907743275881235e-10 0.0000000000000000e+00  -2.0947798106764773e-09 1.0757425664089078e-09 0.0000000000000000e+00  -1.9331596230643906e-09 1.3942373575757106e-09 0.0000000000000000e+00  -1.6922968364737311e-09 1.7240703661594408e-09 0.0000000000000000e+00  -1.3536420424718848e-09 2.0401496026639833e-09 0.0000000000000000e+00  -9.1127077968732941e-10 2.2975212902780352e-09 0.0000000000000000e+00  -3.8894151235540120e-10 2.3947344972936121e-09 0.0000000000000000e+00  -1.8109249205420332e-13 6.2808305013808765e-12 0.0000000000000000e+00  -2.9320639294806560e-14 -4.0611506421434566e-12 0.0000000000000000e+00  -3.0452170112144916e-10 -1.9009100802962338e-09 0.0000000000000000e+00  -7.2854521213696165e-10 -1.8529299764618487e-09 0.0000000000000000e+00  -1.1021017675113082e-09 -1.6762133590880359e-09 0.0000000000000000e+00  -1.4082190630495890e-09 -1.4467812376865762e-09 0.0000000000000000e+00  -1.6431818840548541e-09 -1.1949308222904859e-09 0.0000000000000000e+00  -1.8147590022234767e-09 -9.3967736985732652e-10 0.0000000000000000e+00  -1.9336169739652931e-09 -6.9124043223532939e-10 0.0000000000000000e+00  -2.0102658638691109e-09 -4.5312551960106068e-10 0.0000000000000000e+00  -2.0528903117542527e-09 -2.2416445242351132e-10 0.0000000000000000e+00  -2.0665247739778880e-09 -4.0636038829810183e-13 0.0000000000000000e+00  -2.0528562074151286e-09 2.2333206607106731e-10 0.0000000000000000e+00  -2.0102103958283250e-09 4.5223267251826623e-10 0.0000000000000000e+00  -1.9335660927380722e-09 6.9023692100845178e-10 0.0000000000000000e+00  -1.8147636665558487e-09 9.3852175180762923e-10 0.0000000000000000e+00  -1.6433126370567741e-09 1.1935613594919387e-09 0.0000000000000000e+00  -1.4084819176574737e-09 1.4450465850449588e-09 0.0000000000000000e+00  -1.1031094862620592e-09 1.6743757759094082e-09 0.0000000000000000e+00  -7.2937584456201109e-10 1.8525811133659191e-09 0.0000000000000000e+00  -3.0748588480834175e-10 1.9096218547297191e-09 0.0000000000000000e+00  -1.1880915951038827e-13 4.9386635850945280e-12 0.0000000000000000e+00  -2.2788613831415587e-14 -3.1854420494439115e-12 0.0000000000000000e+00  -2.5010884356920884e-10 -1.5097142075462983e-09 0.0000000000000000e+00  -6.0279603567143010e-10 -1.4819215605551874e-09 0.0000000000000000e+00  -9.2281886114048025e-10 -1.3565683717919948e-09 0.0000000000000000e+00  -1.1963296986774365e-09 -1.1881083109395989e-09 0.0000000000000000e+00  -1.4172066091804062e-09 -9.9626003089783524e-10 0.0000000000000000e+00  -1.5872086128655513e-09 -7.9445733603964979e-10 0.0000000000000000e+00  -1.7110439522182922e-09 -5.9129134847161078e-10 0.0000000000000000e+00  -1.7944372020574072e-09 -3.9102119112268912e-10 0.0000000000000000e+00  -1.8423113576217462e-09 -1.9451114646599717e-10 0.0000000000000000e+00  -1.8578940666346533e-09 -4.2063488503030687e-13 0.0000000000000000e+00  -1.8423051170715246e-09 1.9365631019633616e-10 0.0000000000000000e+00  -1.7944361922906826e-09 3.9012454957808717e-10 0.0000000000000000e+00  -1.7110668551443566e-09 5.9031979355264538e-10 0.0000000000000000e+00  -1.5872880782231153e-09 7.9336635421782878e-10 0.0000000000000000e+00  -1.4174284740587814e-09 9.9500966030680563e-10 0.0000000000000000e+00  -1.1967418591805558e-09 1.1867084090723985e-09 0.0000000000000000e+00  -9.2377140792804221e-10 1.3553676785139442e-09 0.0000000000000000e+00  -6.0351459864825250e-10 1.4820592532826860e-09 0.0000000000000000e+00  -2.5235200521322504e-10 1.5169323085559042e-09 0.0000000000000000e+00  -8.4840194549632396e-14 3.8935120601984314e-12 0.0000000000000000e+00  -1.8748335444000789e-14 -2.4561382710314426e-12 0.0000000000000000e+00  -2.1210349686672933e-10 -1.1822079227225614e-09 0.0000000000000000e+00  -5.1364007289747265e-10 -1.1660117834440242e-09 0.0000000000000000e+00  -7.9268758917926209e-10 -1.0759713273930124e-09 0.0000000000000000e+00  -1.0379029554420448e-09 -9.5184641743006725e-10 0.0000000000000000e+00  -1.2426906762523500e-09 -8.0671220968076259e-10 0.0000000000000000e+00  -1.4058979428866480e-09 -6.4986490027879479e-10 0.0000000000000000e+00  -1.5287683843822816e-09 -4.8790434305499011e-10 0.0000000000000000e+00  -1.6138389932740401e-09 -3.2480067922938121e-10 0.0000000000000000e+00  -1.6636640850362583e-09 -1.6226551142737181e-10 0.0000000000000000e+00  -1.6800583559691526e-09 -4.2246737063391486e-13 0.0000000000000000e+00  -1.6636728816983824e-09 1.6141106028258106e-10 0.0000000000000000e+00  -1.6138652417097573e-09 3.2391770864743690e-10 0.0000000000000000e+00  -1.5288309397521041e-09 4.8697330497310160e-10 0.0000000000000000e+00  -1.4060270376259497e-09 6.4886614839099729e-10 0.0000000000000000e+00  -1.2429487782488664e-09 8.0563386437516130e-10 0.0000000000000000e+00  -1.0383237975806123e-09 9.5072456180552439e-10 0.0000000000000000e+00  -7.9348917628866164e-10 1.0751250073128743e-09 0.0000000000000000e+00  -5.1421555921594443e-10 1.1663533648341772e-09 0.0000000000000000e+00  -2.1379617753069283e-10 1.1883919461180212e-09 0.0000000000000000e+00  -6.1640945713994803e-14 3.0480864899742270e-12 0.0000000000000000e+00  -1.6489167224954150e-14 -1.8288747079428277e-12 0.0000000000000000e+00  -1.8524563203048558e-10 -8.9985560278137845e-10 0.0000000000000000e+00  -4.4995834005519938e-10 -8.9056461540636039e-10 0.0000000000000000e+00  -6.9819945754752415e-10 -8.2628382578832664e-10 0.0000000000000000e+00  -9.2042134511673422e-10 -7.3601143656014102e-10 0.0000000000000000e+00  -1.1102372115607387e-09 -6.2846426939740370e-10 0.0000000000000000e+00  -1.2650984300837321e-09 -5.0994982790611144e-10 0.0000000000000000e+00  -1.3842875343954700e-09 -3.8528458709341824e-10 0.0000000000000000e+00  -1.4683507530290509e-09 -2.5774910940018831e-10 0.0000000000000000e+00  -1.5182464667104551e-09 -1.2919690037826201e-10 0.0000000000000000e+00  -1.5347808052305033e-09 -4.1848834224767125e-13 0.0000000000000000e+00  -1.5182620806844304e-09 1.2835433709291561e-10 0.0000000000000000e+00  -1.4683891003223894e-09 2.5689013704303464e-10 0.0000000000000000e+00  -1.3843644764177406e-09 3.8440040188532573e-10 0.0000000000000000e+00  -1.2652392543368846e-09 5.0903732111922509e-10 0.0000000000000000e+00  -1.1104857164860202e-09 6.2753199061904282e-10 0.0000000000000000e+00  -9.2079272213787693e-10 7.3510282311933916e-10 0.0000000000000000e+00  -6.9882818412305169e-10 8.2566570479537092e-10 0.0000000000000000e+00  -4.5039278257797208e-10 8.9099192833477909e-10 0.0000000000000000e+00  -1.8650175339329238e-10 9.0526966396333132e-10 0.0000000000000000e+00  -4.6519580350698901e-14 2.3401466537067623e-12 0.0000000000000000e+00  -1.5586082874843902e-14 -1.2719543678079733e-12 0.0000000000000000e+00  -1.6652515390797551e-10 -6.4943970848247723e-10 0.0000000000000000e+00  -4.0520169862011238e-10 -6.4445716567929618e-10 0.0000000000000000e+00  -6.3103810683513448e-10 -6.0016766073516900e-10 0.0000000000000000e+00  -8.3568211612401589e-10 -5.3710098936813296e-10 0.0000000000000000e+00  -1.0131197566428450e-09 -4.6096996766278276e-10 0.0000000000000000e+00  -1.1601541804379313e-09 -3.7592457021846674e-10 0.0000000000000000e+00  -1.2749945463520112e-09 -2.8529294550337238e-10 0.0000000000000000e+00  -1.3569955490112443e-09 -1.9153739714976439e-10 0.0000000000000000e+00  -1.4061007198340935e-09 -9.6263806737766394e-11 0.0000000000000000e+00  -1.4224489779657226e-09 -4.1203073377710026e-13 0.0000000000000000e+00  -1.4061173086030360e-09 9.5437382992400023e-11 0.0000000000000000e+00  -1.3570343541684342e-09 1.9070482288473778e-10 0.0000000000000000e+00  -1.2750675493459219e-09 2.8445377873530575e-10 0.0000000000000000e+00  -1.1602795725097625e-09 3.7508537053606908e-10 0.0000000000000000e+00  -1.0133260560088880e-09 4.6014797601750302e-10 0.0000000000000000e+00  -8.3597424623266460e-10 5.3633868110676781e-10 0.0000000000000000e+00  -6.3149835003527350e-10 5.9969288736021373e-10 0.0000000000000000e+00  -4.0551085612637873e-10 6.4491945462288395e-10 0.0000000000000000e+00  -1.6741596385182370e-10 6.5430649194718685e-10 0.0000000000000000e+00  -3.6040033554646175e-14 1.7274774113218670e-12 0.0000000000000000e+00  -1.5809446688953729e-14 -7.6152686986848834e-13 0.0000000000000000e+00  -1.5417392013193025e-10 -4.2091593881349481e-10 0.0000000000000000e+00  -3.7545698506020988e-10 -4.1881028189867055e-10 0.0000000000000000e+00  -5.8606799450413664e-10 -3.9103552341676534e-10 0.0000000000000000e+00  -7.7837350073357174e-10 -3.5102363472001467e-10 0.0000000000000000e+00  -9.4670358471317408e-10 -3.02