<?xml version="1.0"?>
<VTKFile type="UnstructuredGrid"  version="0.1"  >
<UnstructuredGrid>
<Piece  NumberOfPoints="651" NumberOfCells="1200">
<Points>
<DataArray  type="Float64"  NumberOfComponents="3"  format="ascii">0 0 0  50000 0 0  100000 0 0  150000 0 0  200000 0 0  250000 0 0  300000 0 0  350000 0 0  400000 0 0  450000 0 0  500000 0 0  550000 0 0  600000 0 0  650000 0 0  700000 0 0  750000 0 0  800000 0 0  850000 0 0  900000 0 0  950000 0 0  1000000 0 0  0 50000 0  50000 50000 0  100000 50000 0  150000 50000 0  200000 50000 0  250000 50000 0  300000 50000 0  350000 50000 0  400000 50000 0  450000 50000 0  500000 50000 0  550000 50000 0  600000 50000 0  650000 50000 0  700000 50000 0  750000 50000 0  800000 50000 0  850000 50000 0  900000 50000 0  950000 50000 0  1000000 50000 0  0 100000 0  50000 100000 0  100000 100000 0  150000 100000 0  200000 100000 0  250000 100000 0  300000 100000 0  350000 100000 0  400000 100000 0  450000 100000 0  500000 100000 0  550000 100000 0  600000 100000 0  650000 100000 0  700000 100000 0  750000 100000 0  800000 100000 0  850000 100000 0  900000 100000 0  950000 100000 0  1000000 100000 0  0 150000 0  50000 150000 0  100000 150000 0  150000 150000 0  200000 150000 0  250000 150000 0  300000 150000 0  350000 150000 0  400000 150000 0  450000 150000 0  500000 150000 0  550000 150000 0  600000 150000 0  650000 150000 0  700000 150000 0  750000 150000 0  800000 150000 0  850000 150000 0  900000 150000 0  950000 150000 0  1000000 150000 0  0 200000 0  50000 200000 0  100000 200000 0  150000 200000 0  200000 200000 0  250000 200000 0  300000 200000 0  350000 200000 0  400000 200000 0  450000 200000 0  500000 200000 0  550000 200000 0  600000 200000 0  650000 200000 0  700000 200000 0  750000 200000 0  800000 200000 0  850000 200000 0  900000 200000 0  950000 200000 0  1000000 200000 0  0 250000 0  50000 250000 0  100000 250000 0  150000 250000 0  200000 250000 0  250000 250000 0  300000 250000 0  350000 250000 0  400000 250000 0  450000 250000 0  500000 250000 0  550000 250000 0  600000 250000 0  650000 250000 0  700000 250000 0  750000 250000 0  800000 250000 0  850000 250000 0  900000 250000 0  950000 250000 0  1000000 250000 0  0 300000 0  50000 300000 0  100000 300000 0  150000 300000 0  200000 300000 0  250000 300000 0  300000 300000 0  350000 300000 0  400000 300000 0  450000 300000 0  500000 300000 0  550000 300000 0  600000 300000 0  650000 300000 0  700000 300000 0  750000 300000 0  800000 300000 0  850000 300000 0  900000 300000 0  950000 300000 0  1000000 300000 0  0 350000 0  50000 350000 0  100000 350000 0  150000 350000 0  200000 350000 0  250000 350000 0  300000 350000 0  350000 350000 0  400000 350000 0  450000 350000 0  500000 350000 0  550000 350000 0  600000 350000 0  650000 350000 0  700000 350000 0  750000 350000 0  800000 350000 0  850000 350000 0  900000 350000 0  950000 350000 0  1000000 350000 0  0 400000 0  50000 400000 0  100000 400000 0  150000 400000 0  200000 400000 0  250000 400000 0  300000 400000 0  350000 400000 0  400000 400000 0  450000 400000 0  500000 400000 0  550000 400000 0  600000 400000 0  650000 400000 0  700000 400000 0  750000 400000 0  800000 400000 0  850000 400000 0  900000 400000 0  950000 400000 0  1000000 400000 0  0 450000 0  50000 450000 0  100000 450000 0  150000 450000 0  200000 450000 0  250000 450000 0  300000 450000 0  350000 450000 0  400000 450000 0  450000 450000 0  500000 450000 0  550000 450000 0  600000 450000 0  650000 450000 0  700000 450000 0  750000 450000 0  800000 450000 0  850000 450000 0  900000 450000 0  950000 450000 0  1000000 450000 0  0 500000 0  50000 500000 0  100000 500000 0  150000 500000 0  200000 500000 0  250000 500000 0  300000 500000 0  350000 500000 0  400000 500000 0  450000 500000 0  500000 500000 0  550000 500000 0  600000 500000 0  650000 500000 0  700000 500000 0  750000 500000 0  800000 500000 0  850000 500000 0  900000 500000 0  950000 500000 0  1000000 500000 0  0 550000 0  50000 550000 0  100000 550000 0  150000 550000 0  200000 550000 0  250000 550000 0  300000 550000 0  350000 550000 0  400000 550000 0  450000 550000 0  500000 550000 0  550000 550000 0  600000 550000 0  650000 550000 0  700000 550000 0  750000 550000 0  800000 550000 0  850000 550000 0  900000 550000 0  950000 550000 0  1000000 550000 0  0 600000 0  50000 600000 0  100000 600000 0  150000 600000 0  200000 600000 0  250000 600000 0  300000 600000 0  350000 600000 0  400000 600000 0  450000 600000 0  500000 600000 0  550000 600000 0  600000 600000 0  650000 600000 0  700000 600000 0  750000 600000 0  800000 600000 0  850000 600000 0  900000 600000 0  950000 600000 0  1000000 600000 0  0 650000 0  50000 650000 0  100000 650000 0  150000 650000 0  200000 650000 0  250000 650000 0  300000 650000 0  350000 650000 0  400000 650000 0  450000 650000 0  500000 650000 0  550000 650000 0  600000 650000 0  650000 650000 0  700000 650000 0  750000 650000 0  800000 650000 0  850000 650000 0  900000 650000 0  950000 650000 0  1000000 650000 0  0 700000 0  50000 700000 0  100000 700000 0  150000 700000 0  200000 700000 0  250000 700000 0  300000 700000 0  350000 700000 0  400000 700000 0  450000 700000 0  500000 700000 0  550000 700000 0  600000 700000 0  650000 700000 0  700000 700000 0  750000 700000 0  800000 700000 0  850000 700000 0  900000 700000 0  950000 700000 0  1000000 700000 0  0 750000 0  50000 750000 0  100000 750000 0  150000 750000 0  200000 750000 0  250000 750000 0  300000 750000 0  350000 750000 0  400000 750000 0  450000 750000 0  500000 750000 0  550000 750000 0  600000 750000 0  650000 750000 0  700000 750000 0  750000 750000 0  800000 750000 0  850000 750000 0  900000 750000 0  950000 750000 0  1000000 750000 0  0 800000 0  50000 800000 0  100000 800000 0  150000 800000 0  200000 800000 0  250000 800000 0  300000 800000 0  350000 800000 0  400000 800000 0  450000 800000 0  500000 800000 0  550000 800000 0  600000 800000 0  650000 800000 0  700000 800000 0  750000 800000 0  800000 800000 0  850000 800000 0  900000 800000 0  950000 800000 0  1000000 800000 0  0 850000 0  50000 850000 0  100000 850000 0  150000 850000 0  200000 850000 0  250000 850000 0  300000 850000 0  350000 850000 0  400000 850000 0  450000 850000 0  500000 850000 0  550000 850000 0  600000 850000 0  650000 850000 0  700000 850000 0  750000 850000 0  800000 850000 0  850000 850000 0  900000 850000 0  950000 850000 0  1000000 850000 0  0 900000 0  50000 900000 0  100000 900000 0  150000 900000 0  200000 900000 0  250000 900000 0  300000 900000 0  350000 900000 0  400000 900000 0  450000 900000 0  500000 900000 0  550000 900000 0  600000 900000 0  650000 900000 0  700000 900000 0  750000 900000 0  800000 900000 0  850000 900000 0  900000 900000 0  950000 900000 0  1000000 900000 0  0 950000 0  50000 950000 0  100000 950000 0  150000 950000 0  200000 950000 0  250000 950000 0  300000 950000 0  350000 950000 0  400000 950000 0  450000 950000 0  500000 950000 0  550000 950000 0  600000 950000 0  650000 950000 0  700000 950000 0  750000 950000 0  800000 950000 0  850000 950000 0  900000 950000 0  950000 950000 0  1000000 950000 0  0 1000000 0  50000 1000000 0  100000 1000000 0  150000 1000000 0  200000 1000000 0  250000 1000000 0  300000 1000000 0  350000 1000000 0  400000 1000000 0  450000 1000000 0  500000 1000000 0  550000 1000000 0  600000 1000000 0  650000 1000000 0  700000 1000000 0  750000 1000000 0  800000 1000000 0  850000 1000000 0  900000 1000000 0  950000 1000000 0  1000000 1000000 0  0 1050000 0  50000 1050000 0  100000 1050000 0  150000 1050000 0  200000 1050000 0  250000 1050000 0  300000 1050000 0  350000 1050000 0  400000 1050000 0  450000 1050000 0  500000 1050000 0  550000 1050000 0  600000 1050000 0  650000 1050000 0  700000 1050000 0  750000 1050000 0  800000 1050000 0  850000 1050000 0  900000 1050000 0  950000 1050000 0  1000000 1050000 0  0 1100000 0  50000 1100000 0  100000 1100000 0  150000 1100000 0  200000 1100000 0  250000 1100000 0  300000 1100000 0  350000 1100000 0  400000 1100000 0  450000 1100000 0  500000 1100000 0  550000 1100000 0  600000 1100000 0  650000 1100000 0  700000 1100000 0  750000 1100000 0  800000 1100000 0  850000 1100000 0  900000 1100000 0  950000 1100000 0  1000000 1100000 0  0 1150000 0  50000 1150000 0  100000 1150000 0  150000 1150000 0  200000 1150000 0  250000 1150000 0  300000 1150000 0  350000 1150000 0  400000 1150000 0  450000 1150000 0  500000 1150000 0  550000 1150000 0  600000 1150000 0  650000 1150000 0  700000 1150000 0  750000 1150000 0  800000 1150000 0  850000 1150000 0  900000 1150000 0  950000 1150000 0  1000000 1150000 0  0 1200000 0  50000 1200000 0  100000 1200000 0  150000 1200000 0  200000 1200000 0  250000 1200000 0  300000 1200000 0  350000 1200000 0  400000 1200000 0  450000 1200000 0  500000 1200000 0  550000 1200000 0  600000 1200000 0  650000 1200000 0  700000 1200000 0  750000 1200000 0  800000 1200000 0  850000 1200000 0  900000 1200000 0  950000 1200000 0  1000000 1200000 0  0 1250000 0  50000 1250000 0  100000 1250000 0  150000 1250000 0  200000 1250000 0  250000 1250000 0  300000 1250000 0  350000 1250000 0  400000 1250000 0  450000 1250000 0  500000 1250000 0  550000 1250000 0  600000 1250000 0  650000 1250000 0  700000 1250000 0  750000 1250000 0  800000 1250000 0  850000 1250000 0  900000 1250000 0  950000 1250000 0  1000000 1250000 0  0 1300000 0  50000 1300000 0  100000 1300000 0  150000 1300000 0  200000 1300000 0  250000 1300000 0  300000 1300000 0  350000 1300000 0  400000 1300000 0  450000 1300000 0  500000 1300000 0  550000 1300000 0  600000 1300000 0  650000 1300000 0  700000 1300000 0  750000 1300000 0  800000 1300000 0  850000 1300000 0  900000 1300000 0  950000 1300000 0  1000000 1300000 0  0 1350000 0  50000 1350000 0  100000 1350000 0  150000 1350000 0  200000 1350000 0  250000 1350000 0  300000 1350000 0  350000 1350000 0  400000 1350000 0  450000 1350000 0  500000 1350000 0  550000 1350000 0  600000 1350000 0  650000 1350000 0  700000 135
[...]
<PointData  Vectors="f_25021"> 
<DataArray  type="Float64"  Name="f_25021"  NumberOfComponents="3" format="ascii">-1.0575389863495023e-10 -6.9762990922666873e-11 0.0000000000000000e+00  7.9926515698433774e-08 -6.1715900906016553e-11 0.0000000000000000e+00  7.9992918476460322e-08 5.9223196789631297e-13 0.0000000000000000e+00  7.9983421436989950e-08 8.5786172667625710e-13 0.0000000000000000e+00  7.9990836437876427e-08 2.6786731373388560e-14 0.0000000000000000e+00  7.9992363305496196e-08 3.1985604359039983e-13 0.0000000000000000e+00  7.9993426232673496e-08 1.5971351413745538e-13 0.0000000000000000e+00  7.9994096237122783e-08 1.1196754402284777e-13 0.0000000000000000e+00  7.9994463969710880e-08 7.3016385457474615e-14 0.0000000000000000e+00  7.9994641745476758e-08 4.2001215084866148e-14 0.0000000000000000e+00  7.9994653908595852e-08 1.7286572855002232e-14 0.0000000000000000e+00  7.9994502556748790e-08 -3.4968774690238791e-15 0.0000000000000000e+00  7.9994160858640018e-08 -2.4087946708472892e-14 0.0000000000000000e+00  7.9993576268635724e-08 -4.5715713196578668e-14 0.0000000000000000e+00  7.9992507171554220e-08 2.9929129565949643e-14 0.0000000000000000e+00  7.9991010620775413e-08 -3.2272899720007749e-13 0.0000000000000000e+00  7.9988040659628616e-08 1.1612706683279850e-12 0.0000000000000000e+00  7.9972608449250147e-08 5.6606943581472725e-12 0.0000000000000000e+00  7.9993240553935967e-08 -3.0686441113876352e-11 0.0000000000000000e+00  7.9558791543969814e-08 4.0048909005756573e-10 0.0000000000000000e+00  -5.7720278583091216e-10 5.1102245817429127e-10 0.0000000000000000e+00  -8.3058573428792806e-11 -6.5348905702015501e-11 0.0000000000000000e+00  -1.3129067255852523e-08 -1.6219360375029671e-08 0.0000000000000000e+00  -1.4599487228991723e-09 -5.0272909382417403e-09 0.0000000000000000e+00  5.6048961447151115e-11 -2.3527399922014060e-09 0.0000000000000000e+00  2.9801820110818389e-09 -1.1991285423950259e-09 0.0000000000000000e+00  4.1167772630217112e-09 -6.8855763547633677e-10 0.0000000000000000e+00  4.8942011588860418e-09 -4.3760171852995993e-10 0.0000000000000000e+00  5.3818498782824664e-09 -2.8076765783329895e-10 0.0000000000000000e+00  5.6799641435969566e-09 -1.7464816760217024e-10 0.0000000000000000e+00  5.8432690551222451e-09 -9.3353391507672917e-11 0.0000000000000000e+00  5.8948567270759490e-09 -2.2443770099338337e-11 0.0000000000000000e+00  5.8421343700805482e-09 4.8504698341583224e-11 0.0000000000000000e+00  5.6777894769761460e-09 1.2999397720440248e-10 0.0000000000000000e+00  5.3769144595274497e-09 2.3624534937971654e-10 0.0000000000000000e+00  4.8925118708511597e-09 3.9258509721425823e-10 0.0000000000000000e+00  4.1196865200008177e-09 6.5024765473904034e-10 0.0000000000000000e+00  2.8356488530033020e-09 1.1222016311400507e-09 0.0000000000000000e+00  1.0009181524344779e-09 2.2882405972172041e-09 0.0000000000000000e+00  -4.7053973980482308e-09 5.1633510453743348e-09 0.0000000000000000e+00  -9.2970275077773384e-09 1.5360119773720510e-08 0.0000000000000000e+00  -4.2478136151911364e-10 4.1029138695000680e-10 0.0000000000000000e+00  -8.4703820241278989e-12 -1.2434708060069195e-11 0.0000000000000000e+00  -6.1172738802361165e-09 -1.1831546686838589e-08 0.0000000000000000e+00  -8.0832276303096116e-09 -7.9893316857972240e-09 0.0000000000000000e+00  -7.6529294164388364e-09 -4.5019131682978638e-09 0.0000000000000000e+00  -6.2154228609011301e-09 -2.4948849655461109e-09 0.0000000000000000e+00  -5.5066106245267357e-09 -1.5385477047976361e-09 0.0000000000000000e+00  -4.8509949624610011e-09 -9.7388762676805772e-10 0.0000000000000000e+00  -4.4424999564343103e-09 -6.1183673590124664e-10 0.0000000000000000e+00  -4.1756183260387941e-09 -3.5825025013691220e-10 0.0000000000000000e+00  -4.0265709607868090e-09 -1.5957539851815824e-10 0.0000000000000000e+00  -3.9787741171297007e-09 1.5230862951779383e-11 0.0000000000000000e+00  -4.0266632026854299e-09 1.9003727467735681e-10 0.0000000000000000e+00  -4.1754542270867788e-09 3.8863809162115834e-10 0.0000000000000000e+00  -4.4413473256148146e-09 6.4232313174352850e-10 0.0000000000000000e+00  -4.8552718934298666e-09 1.0018009620568122e-09 0.0000000000000000e+00  -5.4673326759999381e-09 1.5621095080503378e-09 0.0000000000000000e+00  -6.3105483443418184e-09 2.5258012134796452e-09 0.0000000000000000e+00  -7.5449554105617495e-09 4.3487042048726445e-09 0.0000000000000000e+00  -8.2230302812869908e-09 8.0037145796562605e-09 0.0000000000000000e+00  -5.1312501165974444e-09 1.4614999315186677e-08 0.0000000000000000e+00  1.2071279608945471e-11 2.1647866167153707e-12 0.0000000000000000e+00  6.8921905936700388e-13 -1.3758047017252394e-11 0.0000000000000000e+00  -2.5619274554619622e-09 -9.0885401541942782e-09 0.0000000000000000e+00  -5.0086670274854682e-09 -7.1874264265348940e-09 0.0000000000000000e+00  -5.4933301142132676e-09 -4.7049710375848773e-09 0.0000000000000000e+00  -5.4115200755410923e-09 -3.1372382255406255e-09 0.0000000000000000e+00  -5.1115232524109121e-09 -2.0941901793166816e-09 0.0000000000000000e+00  -4.7595373931732038e-09 -1.3888588550842757e-09 0.0000000000000000e+00  -4.5100063682059375e-09 -9.0699235914202454e-10 0.0000000000000000e+00  -4.3264173954155186e-09 -5.4905393330737726e-10 0.0000000000000000e+00  -4.2203803206062697e-09 -2.5982541218030902e-10 0.0000000000000000e+00  -4.1853056228106855e-09 -1.3618891757615578e-12 0.0000000000000000e+00  -4.2197031199678136e-09 2.5708853766560868e-10 0.0000000000000000e+00  -4.3251278323512613e-09 5.4609297585634022e-10 0.0000000000000000e+00  -4.5055272341503788e-09 9.0368463864423497e-10 0.0000000000000000e+00  -4.7639099283591990e-09 1.3856124596567446e-09 0.0000000000000000e+00  -5.0887954966171699e-09 2.0820675841150449e-09 0.0000000000000000e+00  -5.4323918766315259e-09 3.1430356667173142e-09 0.0000000000000000e+00  -5.5531974222041690e-09 4.7863455542908579e-09 0.0000000000000000e+00  -4.8369357704591155e-09 7.2239814031823563e-09 0.0000000000000000e+00  -2.5404300801390499e-09 8.5097630009598872e-09 0.0000000000000000e+00  -1.7494664684097264e-12 2.3453869601135756e-11 0.0000000000000000e+00  1.9934177189753519e-13 -8.5211144153673779e-12 0.0000000000000000e+00  -1.3787528222381023e-09 -6.2707832509644867e-09 0.0000000000000000e+00  -3.0164181505304821e-09 -5.6530379989979459e-09 0.0000000000000000e+00  -3.8937737236285174e-09 -4.3962103050399049e-09 0.0000000000000000e+00  -4.2527983380599931e-09 -3.2133945497122876e-09 0.0000000000000000e+00  -4.2651393289619517e-09 -2.2731951513275873e-09 0.0000000000000000e+00  -4.1850777026053740e-09 -1.5842870110578817e-09 0.0000000000000000e+00  -4.0816759992316856e-09 -1.0657730192472643e-09 0.0000000000000000e+00  -3.9899976270283148e-09 -6.5624809959965440e-10 0.0000000000000000e+00  -3.9324661571440957e-09 -3.1281317158278150e-10 0.0000000000000000e+00  -3.9124123978447855e-09 1.7418109588907346e-13 0.0000000000000000e+00  -3.9318664473075971e-09 3.1311268619556822e-10 0.0000000000000000e+00  -3.9893420162801230e-09 6.5636093234959495e-10 0.0000000000000000e+00  -4.0790370405952988e-09 1.0651089061922882e-09 0.0000000000000000e+00  -4.1850536289086121e-09 1.5844522638397916e-09 0.0000000000000000e+00  -4.2689774497149415e-09 2.2734563727141528e-09 0.0000000000000000e+00  -4.2388608058828624e-09 3.1998777970911280e-09 0.0000000000000000e+00  -3.9096755387278749e-09 4.4068770466934777e-09 0.0000000000000000e+00  -2.9970493045228613e-09 5.7094175076500640e-09 0.0000000000000000e+00  -1.3402557755205381e-09 6.3103622107132342e-09 0.0000000000000000e+00  -1.8041144487393988e-12 1.1896281636365889e-11 0.0000000000000000e+00  3.3617141818017498e-13 -6.1085233526730489e-12 0.0000000000000000e+00  -8.5745779376941690e-10 -4.7539962206258945e-09 0.0000000000000000e+00  -2.0333076291020486e-09 -4.5907789532059744e-09 0.0000000000000000e+00  -2.8564900133715193e-09 -3.7974939026951930e-09 0.0000000000000000e+00  -3.3169571222765889e-09 -2.9520189125863177e-09 0.0000000000000000e+00  -3.5323601085011064e-09 -2.2205531471450485e-09 0.0000000000000000e+00  -3.6145629949546963e-09 -1.6153388906872154e-09 0.0000000000000000e+00  -3.6249819278666960e-09 -1.1170078867903144e-09 0.0000000000000000e+00  -3.6122004674685227e-09 -7.0104131843642265e-10 0.0000000000000000e+00  -3.5976709367601098e-09 -3.3778551382318209e-10 0.0000000000000000e+00  -3.5915500107491005e-09 9.9588907396383681e-14 0.0000000000000000e+00  -3.5973001520478416e-09 3.3792954892661678e-10 0.0000000000000000e+00  -3.6117781398039438e-09 7.0113624527016271e-10 0.0000000000000000e+00  -3.6244589408211554e-09 1.1168712330181984e-09 0.0000000000000000e+00  -3.6129584919011853e-09 1.6145931688022871e-09 0.0000000000000000e+00  -3.5346359410026138e-09 2.2228917734743581e-09 0.0000000000000000e+00  -3.3160073085334884e-09 2.9571626467971945e-09 0.0000000000000000e+00  -2.8490340048733657e-09 3.7840543111102252e-09 0.0000000000000000e+00  -2.0256363706903424e-09 4.5718355342092206e-09 0.0000000000000000e+00  -8.5842326234545798e-10 4.7644246681398477e-09 0.0000000000000000e+00  4.0897567165361828e-13 7.6713660224562649e-12 0.0000000000000000e+00  2.4194785689246126e-13 -4.6745377461730504e-12 0.0000000000000000e+00  -6.0121459612460812e-10 -3.7040635036641793e-09 0.0000000000000000e+00  -1.4713010915706480e-09 -3.6651879579365767e-09 0.0000000000000000e+00  -2.1614412451129800e-09 -3.1737262111654489e-09 0.0000000000000000e+00  -2.6368484057877198e-09 -2.6010097770760552e-09 0.0000000000000000e+00  -2.9324265493378495e-09 -2.0410293717352026e-09 0.0000000000000000e+00  -3.1001329255294661e-09 -1.5326628734194655e-09 0.0000000000000000e+00  -3.1885564830609273e-09 -1.0868032196919584e-09 0.0000000000000000e+00  -3.2321018122276909e-09 -6.9399642196584121e-10 0.0000000000000000e+00  -3.2506502893498737e-09 -3.3773252273120613e-10 0.0000000000000000e+00  -3.2556362391140457e-09 -7.2221219115910244e-14 0.0000000000000000e+00  -3.2504857681884484e-09 3.3755173062873848e-10 0.0000000000000000e+00  -3.2317639987593879e-09 6.9375043714761935e-10 0.0000000000000000e+00  -3.1884549663759494e-09 1.0866656669021574e-09 0.0000000000000000e+00  -3.0996298956543545e-09 1.5322592585461422e-09 0.0000000000000000e+00  -2.9314909913135304e-09 2.0395625006286989e-09 0.0000000000000000e+00  -2.6363484232823646e-09 2.6004296812618443e-09 0.0000000000000000e+00  -2.1601829227733621e-09 3.1748727768958019e-09 0.0000000000000000e+00  -1.4685116969187101e-09 3.6668669872126050e-09 0.0000000000000000e+00  -6.0178701587133395e-10 3.7061756657338256e-09 0.0000000000000000e+00  6.4268536131034541e-14 5.8953565515334919e-12 0.0000000000000000e+00  1.9023306365773723e-13 -3.6196154021516741e-12 0.0000000000000000e+00  -4.4991885451608967e-10 -2.9288666425055598e-09 0.0000000000000000e+00  -1.1226958705257091e-09 -2.9518801799630220e-09 0.0000000000000000e+00  -1.6991242036179014e-09 -2.6320583382434937e-09 0.0000000000000000e+00  -2.1412156943186010e-09 -2.2246728269440957e-09 0.0000000000000000e+00  -2.4540031177473765e-09 -1.7974953137588341e-09 0.0000000000000000e+00  -2.6629788503584768e-09 -1.3858554926249172e-09 0.0000000000000000e+00  -2.7957082092020629e-09 -1.0032056294672149e-09 0.0000000000000000e+00  -2.8746463682484086e-09 -6.4976556628394521e-10 0.0000000000000000e+00  -2.9158276728219366e-09 -3.1891240094152776e-10 0.0000000000000000e+00  -2.9285574843979378e-09 -1.2316643650779517e-13 0.0000000000000000e+00  -2.9157517670556219e-09 3.1865838057336379e-10 0.0000000000000000e+00  -2.8744562504059278e-09 6.4945869213823645e-10 0.0000000000000000e+00  -2.7954710117907743e-09 1.0028405908065331e-09 0.0000000000000000e+00  -2.6627658855796502e-09 1.3856042972332090e-09 0.0000000000000000e+00  -2.4534519618908440e-09 1.7968557615374042e-09 0.0000000000000000e+00  -2.1402052869498161e-09 2.2223285902319818e-09 0.0000000000000000e+00  -1.6987390335515569e-09 2.6283854136991644e-09 0.0000000000000000e+00  -1.1227222361929873e-09 2.9525903381161945e-09 0.0000000000000000e+00  -4.5076770469446647e-10 2.9350532517890195e-09 0.0000000000000000e+00  1.2236979019206495e-13 4.4501797894204426e-12 0.0000000000000000e+00  1.5586725007025466e-13 -2.8374410462686313e-12 0.0000000000000000e+00  -3.5401637953070310e-10 -2.3311396355751118e-09 0.0000000000000000e+00  -8.9450304499737813e-10 -2.3743343431557279e-09 0.0000000000000000e+00  -1.3788855630713624e-09 -2.1546160507130356e-09 0.0000000000000000e+00  -1.7755429916255097e-09 -1.8608747631481385e-09 0.0000000000000000e+00  -2.0799940204747480e-09 -1.5373821738971707e-09 0.0000000000000000e+00  -2.3018911042168288e-09 -1.2088264077461741e-09 0.0000000000000000e+00  -2.4551899928332804e-09 -8.8885421355918491e-10 0.0000000000000000e+00  -2.5537984467494953e-09 -5.8236189965988807e-10 0.0000000000000000e+00  -2.6085478117954187e-09 -2.8786735239360121e-10 0.0000000000000000e+00  -2.6260387361484923e-09 -1.7270390588433696e-13 0.0000000000000000e+00  -2.6084900469738590e-09 2.8751551834490895e-10 0.0000000000000000e+00  -2.5536885391495667e-09 5.8198288080021887e-10 0.0000000000000000e+00  -2.4549921357453730e-09 8.8837258810069257e-10 0.0000000000000000e+00  -2.3016159377460167e-09 1.2081486048367277e-09 0.0000000000000000e+00  -2.0797155370042288e-09 1.5365045015821618e-09 0.0000000000000000e+00  -1.7752033050966637e-09 1.8595660596685688e-09 0.0000000000000000e+00  -1.3789483402233650e-09 2.1526871855188008e-09 0.0000000000000000e+00  -8.9488598850419019e-10 2.3755925796806351e-09 0.0000000000000000e+00  -3.5492319947844152e-10 2.3357836527394641e-09 0.0000000000000000e+00  1.1443267196839500e-13 3.4732252825130301e-12 0.0000000000000000e+00  1.3034075751635511e-13 -2.2154674210108272e-12 0.0000000000000000e+00  -2.8965417614451953e-10 -1.8486280363919405e-09 0.0000000000000000e+00  -7.3761081170333341e-10 -1.8957753116320801e-09 0.0000000000000000e+00  -1.1508827851525875e-09 -1.7410736196659688e-09 0.0000000000000000e+00  -1.5041289184837506e-09 -1.5262758300893242e-09 0.0000000000000000e+00  -1.7895722345208025e-09 -1.2804999558207342e-09 0.0000000000000000e+00  -2.0090650793876969e-09 -1.0212447971913214e-09 0.0000000000000000e+00  -2.1687626400007900e-09 -7.5999771123273940e-10 0.0000000000000000e+00  -2.2761861733711674e-09 -5.0244464611124373e-10 0.0000000000000000e+00  -2.3377891355532660e-09 -2.4975438141627679e-10 0.0000000000000000e+00  -2.3578174557043170e-09 -2.0510796008070308e-13 0.0000000000000000e+00  -2.3377436200254555e-09 2.4933119026803597e-10 0.0000000000000000e+00  -2.2760989687015136e-09 5.0198481310232050e-10 0.0000000000000000e+00  -2.1686335800543437e-09 7.5946461258413668e-10 0.0000000000000000e+00  -2.0088836555503531e-09 1.0205440673441935e-09 0.0000000000000000e+00  -1.7894130878626253e-09 1.2795120776492481e-09 0.0000000000000000e+00  -1.5040718644108333e-09 1.5249698375329122e-09 0.0000000000000000e+00  -1.1512074166761783e-09 1.7397080717670121e-09 0.0000000000000000e+00  -7.3810693198194038e-10 1.8973535765030779e-09 0.0000000000000000e+00  -2.9037956327158994e-10 1.8526784699634755e-09 0.0000000000000000e+00  1.0208229161041864e-13 2.7219250726921898e-12 0.0000000000000000e+00  1.1231539225040498e-13 -1.7023897689564008e-12 0.0000000000000000e+00  -2.4485843182673998e-10 -1.4460731492278642e-09 0.0000000000000000e+00  -6.2682693835169789e-10 -1.4897767147888420e-09 0.0000000000000000e+00  -9.8602333715917584e-10 -1.3792172126303544e-09 0.0000000000000000e+00  -1.3018072537207378e-09 -1.2213381751195870e-09 0.0000000000000000e+00  -1.5657948569222079e-09 -1.0358516806076042e-09 0.0000000000000000e+00  -1.7761529212848202e-09 -8.3475695866382251e-10 0.0000000000000000e+00  -1.9344583322561080e-09 -6.2677680609240958e-10 0.0000000000000000e+00  -2.0440037432475505e-09 -4.1718040730882559e-10 0.0000000000000000e+00  -2.1081255950529559e-09 -2.0826523312368354e-10 0.0000000000000000e+00  -2.1292054165391146e-09 -2.3083450780883243e-13 0.0000000000000000e+00  -2.1080931663435637e-09 2.0779134852611666e-10 0.0000000000000000e+00  -2.0439395203521500e-09 4.1666611884203079e-10 0.0000000000000000e+00  -1.9343725099792742e-09 6.2618875785657800e-10 0.0000000000000000e+00  -1.7760625933371317e-09 8.3405544568485704e-10 0.0000000000000000e+00  -1.5657602308011949e-09 1.0349911359906108e-09 0.0000000000000000e+00  -1.3018808844149374e-09 1.2203057051672852e-09 0.0000000000000000e+00  -9.8637711129878876e-10 1.3782324068268275e-09 0.0000000000000000e+00  -6.2728796830351767e-10 1.4913613239502031e-09 0.0000000000000000e+00  -2.4543541870135182e-10 1.4496165446936983e-09 0.0000000000000000e+00  9.3640799982925933e-14 2.1212301318329031e-12 0.0000000000000000e+00  9.9190484295120595e-14 -1.2642719071476282e-12 0.0000000000000000e+00  -2.1327900585569632e-10 -1.0999375633381588e-09 0.0000000000000000e+00  -5.4791494131382162e-10 -1.1367043748368729e-09 0.0000000000000000e+00  -8.6662014189812531e-10 -1.0581155635337296e-09 0.0000000000000000e+00  -1.1521135349236576e-09 -9.4351395998744799e-10 0.0000000000000000e+00  -1.3962788036771842e-09 -8.0631533416103027e-10 0.0000000000000000e+00  -1.5955397512736718e-09 -6.5458174050382850e-10 0.0000000000000000e+00  -1.7489071279271600e-09 -4.9465622985740790e-10 0.0000000000000000e+00  -1.8570621522910618e-09 -3.3088303837240928e-10 0.0000000000000000e+00  -1.9212416035894977e-09 -1.6572637646323927e-10 0.0000000000000000e+00  -1.9424943739475071e-09 -2.5012318873967779e-13 0.0000000000000000e+00  -1.9212195655376452e-09 1.6521579713089246e-10 0.0000000000000000e+00  -1.8570213545160520e-09 3.3033975476310733e-10 0.0000000000000000e+00  -1.7488587549882125e-09 4.9405476012656626e-10 0.0000000000000000e+00  -1.5955051377048812e-09 6.5389905369489947e-10 0.0000000000000000e+00  -1.3963088879376252e-09 8.0554493518623853e-10 0.0000000000000000e+00  -1.1522391607689383e-09 9.4268010885299473e-10 0.0000000000000000e+00  -8.6693615731215018e-10 1.0574016431298692e-09 0.0000000000000000e+00  -5.4829069823474445e-10 1.1382500629061379e-09 0.0000000000000000e+00  -2.1371966742555742e-10 1.1030723422604380e-09 0.0000000000000000e+00  8.6377484596260849e-14 1.6230571817200496e-12 0.0000000000000000e+00  8.9715452044512032e-14 -8.7750275443340548e-13 0.0000000000000000e+00  -1.9128617374088127e-10 -7.9360981628219025e-10 0.0000000000000000e+00  -4.9255717112703566e-10 -8.2190935415286896e-10 0.0000000000000000e+00  -7.8189837668821417e-10 -7.6799144373279350e-10 0.0000000000000000e+00  -1.0443166742894175e-09 -6.8801943979555999e-10 0.0000000000000000e+00  -1.2721570363147928e-09 -5.9101462965184615e-10 0.0000000000000000e+00  -1.4610617660256792e-09 -4.8223990691288916e-10 0.0000000000000000e+00  -1.6086522308266233e-09 -3.6606516934626608e-10 0.0000000000000000e+00  -1.7140528394217198e-09 -2.4573945872941557e-10 0.0000000000000000e+00  -1.7771681133578061e-09 -1.2338787483182955e-10 0.0000000000000000e+00  -1.7981698615190394e-09 -2.6288939419942065e-13 0.0000000000000000e+00  -1.7771543854913167e-09 1.2285375069799268e-10 0.0000000000000000e+00  -1.7140296774070743e-09 2.4518066612776465e-10 0.0000000000000000e+00  -1.6086304578575938e-09 3.6546704532587700e-10 0.0000000000000000e+00  -1.4610589093782214e-09 4.8159361021138936e-10 0.0000000000000000e+00  -1.2722088238943603e-09 5.9032758995760429e-10 0.0000000000000000e+00  -1.0444403168790256e-09 6.8732379465134793e-10 0.0000000000000000e+00  -7.8214678790532485e-10 7.6744463177093190e-10 0.0000000000000000e+00  -4.9283814092173016e-10 8.2339907496277169e-10 0.0000000000000000e+00  -1.9160364003249475e-10 7.9645191598636204e-10 0.0000000000000000e+00  8.1139415322832421e-14 1.1950875653121672e-12 0.0000000000000000e+00  8.3097795134506117e-14 -5.2455228526877514e-13 0.0000000000000000e+00  -1.7676290169357981e-10 -5.1453779893886912e-10 0.0000000000000000e+00  -4.5581115978007325e-10 -5.3374545895467313e-10 0.0000000000000000e+00  -7.2522875331387062e-10 -5.0011806701205158e-10 0.0000000000000000e+00  -9.7148861378527830e-10 -4.4939790182405456e-10 0.0000000000000000e+00  -1.1873486319485279e-09 -3.8733228002040920e-10 0.00000000000