<?xml version="1.0"?>
<VTKFile type="UnstructuredGrid"  version="0.1"  >
<UnstructuredGrid>
<Piece  NumberOfPoints="651" NumberOfCells="1200">
<Points>
<DataArray  type="Float64"  NumberOfComponents="3"  format="ascii">0 0 0  50000 0 0  100000 0 0  150000 0 0  200000 0 0  250000 0 0  300000 0 0  350000 0 0  400000 0 0  450000 0 0  500000 0 0  550000 0 0  600000 0 0  650000 0 0  700000 0 0  750000 0 0  800000 0 0  850000 0 0  900000 0 0  950000 0 0  1000000 0 0  0 50000 0  50000 50000 0  100000 50000 0  150000 50000 0  200000 50000 0  250000 50000 0  300000 50000 0  350000 50000 0  400000 50000 0  450000 50000 0  500000 50000 0  550000 50000 0  600000 50000 0  650000 50000 0  700000 50000 0  750000 50000 0  800000 50000 0  850000 50000 0  900000 50000 0  950000 50000 0  1000000 50000 0  0 100000 0  50000 100000 0  100000 100000 0  150000 100000 0  200000 100000 0  250000 100000 0  300000 100000 0  350000 100000 0  400000 100000 0  450000 100000 0  500000 100000 0  550000 100000 0  600000 100000 0  650000 100000 0  700000 100000 0  750000 100000 0  800000 100000 0  850000 100000 0  900000 100000 0  950000 100000 0  1000000 100000 0  0 150000 0  50000 150000 0  100000 150000 0  150000 150000 0  200000 150000 0  250000 150000 0  300000 150000 0  350000 150000 0  400000 150000 0  450000 150000 0  500000 150000 0  550000 150000 0  600000 150000 0  650000 150000 0  700000 150000 0  750000 150000 0  800000 150000 0  850000 150000 0  900000 150000 0  950000 150000 0  1000000 150000 0  0 200000 0  50000 200000 0  100000 200000 0  150000 200000 0  200000 200000 0  250000 200000 0  300000 200000 0  350000 200000 0  400000 200000 0  450000 200000 0  500000 200000 0  550000 200000 0  600000 200000 0  650000 200000 0  700000 200000 0  750000 200000 0  800000 200000 0  850000 200000 0  900000 200000 0  950000 200000 0  1000000 200000 0  0 250000 0  50000 250000 0  100000 250000 0  150000 250000 0  200000 250000 0  250000 250000 0  300000 250000 0  350000 250000 0  400000 250000 0  450000 250000 0  500000 250000 0  550000 250000 0  600000 250000 0  650000 250000 0  700000 250000 0  750000 250000 0  800000 250000 0  850000 250000 0  900000 250000 0  950000 250000 0  1000000 250000 0  0 300000 0  50000 300000 0  100000 300000 0  150000 300000 0  200000 300000 0  250000 300000 0  300000 300000 0  350000 300000 0  400000 300000 0  450000 300000 0  500000 300000 0  550000 300000 0  600000 300000 0  650000 300000 0  700000 300000 0  750000 300000 0  800000 300000 0  850000 300000 0  900000 300000 0  950000 300000 0  1000000 300000 0  0 350000 0  50000 350000 0  100000 350000 0  150000 350000 0  200000 350000 0  250000 350000 0  300000 350000 0  350000 350000 0  400000 350000 0  450000 350000 0  500000 350000 0  550000 350000 0  600000 350000 0  650000 350000 0  700000 350000 0  750000 350000 0  800000 350000 0  850000 350000 0  900000 350000 0  950000 350000 0  1000000 350000 0  0 400000 0  50000 400000 0  100000 400000 0  150000 400000 0  200000 400000 0  250000 400000 0  300000 400000 0  350000 400000 0  400000 400000 0  450000 400000 0  500000 400000 0  550000 400000 0  600000 400000 0  650000 400000 0  700000 400000 0  750000 400000 0  800000 400000 0  850000 400000 0  900000 400000 0  950000 400000 0  1000000 400000 0  0 450000 0  50000 450000 0  100000 450000 0  150000 450000 0  200000 450000 0  250000 450000 0  300000 450000 0  350000 450000 0  400000 450000 0  450000 450000 0  500000 450000 0  550000 450000 0  600000 450000 0  650000 450000 0  700000 450000 0  750000 450000 0  800000 450000 0  850000 450000 0  900000 450000 0  950000 450000 0  1000000 450000 0  0 500000 0  50000 500000 0  100000 500000 0  150000 500000 0  200000 500000 0  250000 500000 0  300000 500000 0  350000 500000 0  400000 500000 0  450000 500000 0  500000 500000 0  550000 500000 0  600000 500000 0  650000 500000 0  700000 500000 0  750000 500000 0  800000 500000 0  850000 500000 0  900000 500000 0  950000 500000 0  1000000 500000 0  0 550000 0  50000 550000 0  100000 550000 0  150000 550000 0  200000 550000 0  250000 550000 0  300000 550000 0  350000 550000 0  400000 550000 0  450000 550000 0  500000 550000 0  550000 550000 0  600000 550000 0  650000 550000 0  700000 550000 0  750000 550000 0  800000 550000 0  850000 550000 0  900000 550000 0  950000 550000 0  1000000 550000 0  0 600000 0  50000 600000 0  100000 600000 0  150000 600000 0  200000 600000 0  250000 600000 0  300000 600000 0  350000 600000 0  400000 600000 0  450000 600000 0  500000 600000 0  550000 600000 0  600000 600000 0  650000 600000 0  700000 600000 0  750000 600000 0  800000 600000 0  850000 600000 0  900000 600000 0  950000 600000 0  1000000 600000 0  0 650000 0  50000 650000 0  100000 650000 0  150000 650000 0  200000 650000 0  250000 650000 0  300000 650000 0  350000 650000 0  400000 650000 0  450000 650000 0  500000 650000 0  550000 650000 0  600000 650000 0  650000 650000 0  700000 650000 0  750000 650000 0  800000 650000 0  850000 650000 0  900000 650000 0  950000 650000 0  1000000 650000 0  0 700000 0  50000 700000 0  100000 700000 0  150000 700000 0  200000 700000 0  250000 700000 0  300000 700000 0  350000 700000 0  400000 700000 0  450000 700000 0  500000 700000 0  550000 700000 0  600000 700000 0  650000 700000 0  700000 700000 0  750000 700000 0  800000 700000 0  850000 700000 0  900000 700000 0  950000 700000 0  1000000 700000 0  0 750000 0  50000 750000 0  100000 750000 0  150000 750000 0  200000 750000 0  250000 750000 0  300000 750000 0  350000 750000 0  400000 750000 0  450000 750000 0  500000 750000 0  550000 750000 0  600000 750000 0  650000 750000 0  700000 750000 0  750000 750000 0  800000 750000 0  850000 750000 0  900000 750000 0  950000 750000 0  1000000 750000 0  0 800000 0  50000 800000 0  100000 800000 0  150000 800000 0  200000 800000 0  250000 800000 0  300000 800000 0  350000 800000 0  400000 800000 0  450000 800000 0  500000 800000 0  550000 800000 0  600000 800000 0  650000 800000 0  700000 800000 0  750000 800000 0  800000 800000 0  850000 800000 0  900000 800000 0  950000 800000 0  1000000 800000 0  0 850000 0  50000 850000 0  100000 850000 0  150000 850000 0  200000 850000 0  250000 850000 0  300000 850000 0  350000 850000 0  400000 850000 0  450000 850000 0  500000 850000 0  550000 850000 0  600000 850000 0  650000 850000 0  700000 850000 0  750000 850000 0  800000 850000 0  850000 850000 0  900000 850000 0  950000 850000 0  1000000 850000 0  0 900000 0  50000 900000 0  100000 900000 0  150000 900000 0  200000 900000 0  250000 900000 0  300000 900000 0  350000 900000 0  400000 900000 0  450000 900000 0  500000 900000 0  550000 900000 0  600000 900000 0  650000 900000 0  700000 900000 0  750000 900000 0  800000 900000 0  850000 900000 0  900000 900000 0  950000 900000 0  1000000 900000 0  0 950000 0  50000 950000 0  100000 950000 0  150000 950000 0  200000 950000 0  250000 950000 0  300000 950000 0  350000 950000 0  400000 950000 0  450000 950000 0  500000 950000 0  550000 950000 0  600000 950000 0  650000 950000 0  700000 950000 0  750000 950000 0  800000 950000 0  850000 950000 0  900000 950000 0  950000 950000 0  1000000 950000 0  0 1000000 0  50000 1000000 0  100000 1000000 0  150000 1000000 0  200000 1000000 0  250000 1000000 0  300000 1000000 0  350000 1000000 0  400000 1000000 0  450000 1000000 0  500000 1000000 0  550000 1000000 0  600000 1000000 0  650000 1000000 0  700000 1000000 0  750000 1000000 0  800000 1000000 0  850000 1000000 0  900000 1000000 0  950000 1000000 0  1000000 1000000 0  0 1050000 0  50000 1050000 0  100000 1050000 0  150000 1050000 0  200000 1050000 0  250000 1050000 0  300000 1050000 0  350000 1050000 0  400000 1050000 0  450000 1050000 0  500000 1050000 0  550000 1050000 0  600000 1050000 0  650000 1050000 0  700000 1050000 0  750000 1050000 0  800000 1050000 0  850000 1050000 0  900000 1050000 0  950000 1050000 0  1000000 1050000 0  0 1100000 0  50000 1100000 0  100000 1100000 0  150000 1100000 0  200000 1100000 0  250000 1100000 0  300000 1100000 0  350000 1100000 0  400000 1100000 0  450000 1100000 0  500000 1100000 0  550000 1100000 0  600000 1100000 0  650000 1100000 0  700000 1100000 0  750000 1100000 0  800000 1100000 0  850000 1100000 0  900000 1100000 0  950000 1100000 0  1000000 1100000 0  0 1150000 0  50000 1150000 0  100000 1150000 0  150000 1150000 0  200000 1150000 0  250000 1150000 0  300000 1150000 0  350000 1150000 0  400000 1150000 0  450000 1150000 0  500000 1150000 0  550000 1150000 0  600000 1150000 0  650000 1150000 0  700000 1150000 0  750000 1150000 0  800000 1150000 0  850000 1150000 0  900000 1150000 0  950000 1150000 0  1000000 1150000 0  0 1200000 0  50000 1200000 0  100000 1200000 0  150000 1200000 0  200000 1200000 0  250000 1200000 0  300000 1200000 0  350000 1200000 0  400000 1200000 0  450000 1200000 0  500000 1200000 0  550000 1200000 0  600000 1200000 0  650000 1200000 0  700000 1200000 0  750000 1200000 0  800000 1200000 0  850000 1200000 0  900000 1200000 0  950000 1200000 0  1000000 1200000 0  0 1250000 0  50000 1250000 0  100000 1250000 0  150000 1250000 0  200000 1250000 0  250000 1250000 0  300000 1250000 0  350000 1250000 0  400000 1250000 0  450000 1250000 0  500000 1250000 0  550000 1250000 0  600000 1250000 0  650000 1250000 0  700000 1250000 0  750000 1250000 0  800000 1250000 0  850000 1250000 0  900000 1250000 0  950000 1250000 0  1000000 1250000 0  0 1300000 0  50000 1300000 0  100000 1300000 0  150000 1300000 0  200000 1300000 0  250000 1300000 0  300000 1300000 0  350000 1300000 0  400000 1300000 0  450000 1300000 0  500000 1300000 0  550000 1300000 0  600000 1300000 0  650000 1300000 0  700000 1300000 0  750000 1300000 0  800000 1300000 0  850000 1300000 0  900000 1300000 0  950000 1300000 0  1000000 1300000 0  0 1350000 0  50000 1350000 0  100000 1350000 0  150000 1350000 0  200000 1350000 0  250000 1350000 0  300000 1350000 0  350000 1350000 0  400000 1350000 0  450000 1350000 0  500000 1350000 0  550000 1350000 0  600000 1350000 0  650000 1350000 0  700000 135
[...]
<PointData  Vectors="f_25021"> 
<DataArray  type="Float64"  Name="f_25021"  NumberOfComponents="3" format="ascii">-9.8103201675721641e-11 -6.2129978892840255e-11 0.0000000000000000e+00  7.9932838392960885e-08 -5.5207030789588369e-11 0.0000000000000000e+00  7.9995427001468791e-08 2.0253971296536109e-12 0.0000000000000000e+00  7.9986394880175545e-08 1.5270703411275605e-12 0.0000000000000000e+00  7.9993070841070004e-08 3.9711139953870157e-13 0.0000000000000000e+00  7.9994277041851945e-08 5.0395219425834342e-13 0.0000000000000000e+00  7.9995131451996879e-08 2.6915947480573063e-13 0.0000000000000000e+00  7.9995662913655399e-08 1.7670567421432083e-13 0.0000000000000000e+00  7.9995949752056636e-08 1.0675071867955370e-13 0.0000000000000000e+00  7.9996088324328200e-08 5.1740998117206990e-14 0.0000000000000000e+00  7.9996097577537244e-08 4.7139662832297759e-15 0.0000000000000000e+00  7.9995979407532896e-08 -4.0340281536656812e-14 0.0000000000000000e+00  7.9995711133232162e-08 -9.0978641233111357e-14 0.0000000000000000e+00  7.9995251184802399e-08 -1.5662211227851346e-13 0.0000000000000000e+00  7.9994380543138844e-08 -1.5316931681243981e-13 0.0000000000000000e+00  7.9993177517595630e-08 -6.1609959744126495e-13 0.0000000000000000e+00  7.9990630104193099e-08 5.4792722798922786e-13 0.0000000000000000e+00  7.9976343144092984e-08 4.1046083999337772e-12 0.0000000000000000e+00  7.9995185972092219e-08 -3.1170913536962347e-11 0.0000000000000000e+00  7.9587531672445352e-08 3.7141537630013681e-10 0.0000000000000000e+00  -5.4081904595120909e-10 4.7307050883567329e-10 0.0000000000000000e+00  -7.6612609438150715e-11 -5.8936329377909301e-11 0.0000000000000000e+00  -1.1857624301756752e-08 -1.8359408385268483e-08 0.0000000000000000e+00  1.5421559475506983e-09 -5.9093338812535552e-09 0.0000000000000000e+00  3.8128097054285445e-09 -2.7168726977476538e-09 0.0000000000000000e+00  7.1525588000244684e-09 -1.3404364808996286e-09 0.0000000000000000e+00  8.4811567154215106e-09 -7.6039666378516762e-10 0.0000000000000000e+00  9.3765740184284740e-09 -4.7768585793420461e-10 0.0000000000000000e+00  9.9341660943085919e-09 -3.0282202902297990e-10 0.0000000000000000e+00  1.0274468810769550e-08 -1.8569445240809123e-10 0.0000000000000000e+00  1.0460602174115134e-08 -9.6293112678240137e-11 0.0000000000000000e+00  1.0519439639504822e-08 -1.8553865555577356e-11 0.0000000000000000e+00  1.0459644970241900e-08 5.9181662001931130e-11 0.0000000000000000e+00  1.0272769850924701e-08 1.4864987269121882e-10 0.0000000000000000e+00  9.9298589565334207e-09 2.6575977510139792e-10 0.0000000000000000e+00  9.3755990790720363e-09 4.3920905673881027e-10 0.0000000000000000e+00  8.4880032601290531e-09 7.2836342823585529e-10 0.0000000000000000e+00  7.0033317743334217e-09 1.2660550512624205e-09 0.0000000000000000e+00  4.7978490380997579e-09 2.6312827201584768e-09 0.0000000000000000e+00  -1.7937914801115030e-09 6.1361860797025099e-09 0.0000000000000000e+00  -8.0747126790277460e-09 1.7430912704791910e-08 0.0000000000000000e+00  -3.9679992627076029e-10 3.8045212289181396e-10 0.0000000000000000e+00  -7.0515400390568170e-12 -1.0128600667213439e-11 0.0000000000000000e+00  -6.9951983858658477e-09 -1.4047303110483852e-08 0.0000000000000000e+00  -9.4201166829782477e-09 -9.4749941185157749e-09 0.0000000000000000e+00  -8.7632266579989663e-09 -5.3101789232139612e-09 0.0000000000000000e+00  -7.0603647314548841e-09 -2.9133480975064689e-09 0.0000000000000000e+00  -6.1663762945111905e-09 -1.7858077677712876e-09 0.0000000000000000e+00  -5.3777357374078101e-09 -1.1258768156554000e-09 0.0000000000000000e+00  -4.8869716487279892e-09 -7.0710599499696280e-10 0.0000000000000000e+00  -4.5670657094735919e-09 -4.1560294966874839e-10 0.0000000000000000e+00  -4.3891676351028520e-09 -1.8817745627870491e-10 0.0000000000000000e+00  -4.3322291923902136e-09 1.1434242115328076e-11 0.0000000000000000e+00  -4.3895003201594275e-09 2.1104897945064993e-10 0.0000000000000000e+00  -4.5674618872937709e-09 4.3835483798847391e-10 0.0000000000000000e+00  -4.8862615816622435e-09 7.3001297590318689e-10 0.0000000000000000e+00  -5.3844341972454165e-09 1.1461205556984230e-09 0.0000000000000000e+00  -6.1255975203546935e-09 1.8004838482812187e-09 0.0000000000000000e+00  -7.1623551725610160e-09 2.9420075465059824e-09 0.0000000000000000e+00  -8.6693627474262362e-09 5.1383992451448553e-09 0.0000000000000000e+00  -9.5737071758891240e-09 9.6078568838338946e-09 0.0000000000000000e+00  -5.9521612714006276e-09 1.6768239977841223e-08 0.0000000000000000e+00  1.1748384338656303e-11 7.5800034262662872e-14 0.0000000000000000e+00  1.3519375243863822e-12 -1.1259079316045554e-11 0.0000000000000000e+00  -2.9681747485724794e-09 -1.0391498733828822e-08 0.0000000000000000e+00  -5.8597180741976852e-09 -8.5483866369338632e-09 0.0000000000000000e+00  -6.4718472062663672e-09 -5.6051885255013365e-09 0.0000000000000000e+00  -6.3552247825313130e-09 -3.7024124963358713e-09 0.0000000000000000e+00  -5.9760223919346149e-09 -2.4554945262184833e-09 0.0000000000000000e+00  -5.5488269918897439e-09 -1.6209612730397267e-09 0.0000000000000000e+00  -5.2451942949441802e-09 -1.0549280785275874e-09 0.0000000000000000e+00  -5.0228829020292780e-09 -6.3674295977003590e-10 0.0000000000000000e+00  -4.8952841882645709e-09 -3.0028058414042771e-10 0.0000000000000000e+00  -4.8530876061999738e-09 -2.4928292617614198e-13 0.0000000000000000e+00  -4.8946464794887787e-09 2.9978584814062721e-10 0.0000000000000000e+00  -5.0219705578173059e-09 6.3603962994704091e-10 0.0000000000000000e+00  -5.2403858942609728e-09 1.0538633189492600e-09 0.0000000000000000e+00  -5.5546752830701753e-09 1.6203482337560821e-09 0.0000000000000000e+00  -5.9531772814605993e-09 2.4454612220722578e-09 0.0000000000000000e+00  -6.3778286206086938e-09 3.7143978839254410e-09 0.0000000000000000e+00  -6.5390490862059624e-09 5.6979407080224584e-09 0.0000000000000000e+00  -5.6675448658302678e-09 8.6196314728661569e-09 0.0000000000000000e+00  -2.8858214259760912e-09 9.7866845874891238e-09 0.0000000000000000e+00  -5.4952637214749998e-13 2.0084161319666624e-11 0.0000000000000000e+00  6.0608344036854538e-13 -6.6931073952743217e-12 0.0000000000000000e+00  -1.5551377667570064e-09 -7.1430227599900369e-09 0.0000000000000000e+00  -3.5113526716360148e-09 -6.7297423536997459e-09 0.0000000000000000e+00  -4.5809244929592137e-09 -5.2210522485104803e-09 0.0000000000000000e+00  -5.0023485713717631e-09 -3.8017208755719142e-09 0.0000000000000000e+00  -5.0143775998781016e-09 -2.6797167451320836e-09 0.0000000000000000e+00  -4.9125092025504557e-09 -1.8621031171331711e-09 0.0000000000000000e+00  -4.7843855701927879e-09 -1.2495343654871422e-09 0.0000000000000000e+00  -4.6720440435252566e-09 -7.6807790280233742e-10 0.0000000000000000e+00  -4.6020739294574493e-09 -3.6576573670605070e-10 0.0000000000000000e+00  -4.5776545659438248e-09 2.5686702663551767e-13 0.0000000000000000e+00  -4.6014504110550313e-09 3.6624107196752878e-10 0.0000000000000000e+00  -4.6716679342137878e-09 7.6845857967809505e-10 0.0000000000000000e+00  -4.7816943542304535e-09 1.2491542792376702e-09 0.0000000000000000e+00  -4.9129075416265956e-09 1.8628958127943100e-09 0.0000000000000000e+00  -5.0192407608990244e-09 2.6818305312065799e-09 0.0000000000000000e+00  -4.9892609396946362e-09 3.7893962969954259e-09 0.0000000000000000e+00  -4.5952361031024740e-09 5.2361398277177739e-09 0.0000000000000000e+00  -3.4866894808503341e-09 6.7883079314807172e-09 0.0000000000000000e+00  -1.5027460656137597e-09 7.1690816918244264e-09 0.0000000000000000e+00  -1.1599575903875591e-12 9.6848410936620585e-12 0.0000000000000000e+00  5.7152799223398609e-13 -4.6825517592127110e-12 0.0000000000000000e+00  -9.5229351744360100e-10 -5.3819561667804844e-09 0.0000000000000000e+00  -2.3424088688287364e-09 -5.4264907216324598e-09 0.0000000000000000e+00  -3.3339596449337187e-09 -4.4977701139690601e-09 0.0000000000000000e+00  -3.8863613384875908e-09 -3.4931008929785296e-09 0.0000000000000000e+00  -4.1417880181227375e-09 -2.6222722266827771e-09 0.0000000000000000e+00  -4.2362606365626067e-09 -1.9033917568060112e-09 0.0000000000000000e+00  -4.2454798981248768e-09 -1.3139083440330129e-09 0.0000000000000000e+00  -4.2280156642540275e-09 -8.2360894317331086e-10 0.0000000000000000e+00  -4.2093607035800830e-09 -3.9655080425192733e-10 0.0000000000000000e+00  -4.2016159757267557e-09 1.3582462500348087e-13 0.0000000000000000e+00  -4.2090003747079055e-09 3.9676849045970688e-10 0.0000000000000000e+00  -4.2276968244264102e-09 8.2385759176634732e-10 0.0000000000000000e+00  -4.2452051381818392e-09 1.3140668183576737e-09 0.0000000000000000e+00  -4.2346615080428831e-09 1.9030381617317623e-09 0.0000000000000000e+00  -4.1445271687792836e-09 2.6255641815769783e-09 0.0000000000000000e+00  -3.8852702291805239e-09 3.5002757457075213e-09 0.0000000000000000e+00  -3.3248948430160909e-09 4.4852900834986996e-09 0.0000000000000000e+00  -2.3319494957984645e-09 5.4073750690178249e-09 0.0000000000000000e+00  -9.4973050788181377e-10 5.3875167805598079e-09 0.0000000000000000e+00  7.3241975072577332e-13 5.9575479105688812e-12 0.0000000000000000e+00  4.0408929386783163e-13 -3.5453266836817657e-12 0.0000000000000000e+00  -6.6221101638036168e-10 -4.1791268919506207e-09 0.0000000000000000e+00  -1.6833936921029864e-09 -4.3204420479146556e-09 0.0000000000000000e+00  -2.5092549207110848e-09 -3.7518400018458880e-09 0.0000000000000000e+00  -3.0771605459277261e-09 -3.0742760770308304e-09 0.0000000000000000e+00  -3.4287601415694113e-09 -2.4097697932163476e-09 0.0000000000000000e+00  -3.6266121904968545e-09 -1.8072937339742097e-09 0.0000000000000000e+00  -3.7299045738321764e-09 -1.2801445048778537e-09 0.0000000000000000e+00  -3.7801035568217028e-09 -8.1673629136666091e-10 0.0000000000000000e+00  -3.8010820171557583e-09 -3.9717709248994659e-10 0.0000000000000000e+00  -3.8066834377288068e-09 5.0816276362724788e-14 0.0000000000000000e+00  -3.8009596784863086e-09 3.9725783407844046e-10 0.0000000000000000e+00  -3.7797836098593571e-09 8.1678750533962555e-10 0.0000000000000000e+00  -3.7299370809991757e-09 1.2804549708521510e-09 0.0000000000000000e+00  -3.6261826594501311e-09 1.8075048015177022e-09 0.0000000000000000e+00  -3.4276194934395144e-09 2.4088008882013340e-09 0.0000000000000000e+00  -3.0763544835262641e-09 3.0742121329403885e-09 0.0000000000000000e+00  -2.5069865179060548e-09 3.7536148018960813e-09 0.0000000000000000e+00  -1.6792097427097396e-09 4.3228716801450511e-09 0.0000000000000000e+00  -6.6050165465328887e-10 4.1774533763184863e-09 0.0000000000000000e+00  2.8786180523493406e-13 4.5408343662951453e-12 0.0000000000000000e+00  3.1042165929707423e-13 -2.7203798851841218e-12 0.0000000000000000e+00  -4.9273567127760314e-10 -3.2972070412011453e-09 0.0000000000000000e+00  -1.2784547798529360e-09 -3.4714286143717658e-09 0.0000000000000000e+00  -1.9644931360983781e-09 -3.1048600170972430e-09 0.0000000000000000e+00  -2.4905473885771426e-09 -2.6256521468700960e-09 0.0000000000000000e+00  -2.8621553756952806e-09 -2.1208567069689721e-09 0.0000000000000000e+00  -3.1095716268257309e-09 -1.6342591305650983e-09 0.0000000000000000e+00  -3.2661001022414909e-09 -1.1822743311120398e-09 0.0000000000000000e+00  -3.3587509511886516e-09 -7.6528853410275227e-10 0.0000000000000000e+00  -3.4069252072725968e-09 -3.7541200082931052e-10 0.0000000000000000e+00  -3.4218075702384562e-09 -4.5699507363325508e-15 0.0000000000000000e+00  -3.4068704545320034e-09 3.7541537900932277e-10 0.0000000000000000e+00  -3.3585753342247277e-09 7.6527005114866136e-10 0.0000000000000000e+00  -3.2658404184832078e-09 1.1822352000945734e-09 0.0000000000000000e+00  -3.1093304306296760e-09 1.6344467376522396e-09 0.0000000000000000e+00  -2.8614063633155255e-09 2.1207048044194488e-09 0.0000000000000000e+00  -2.4890788015254558e-09 2.6234870629790369e-09 0.0000000000000000e+00  -1.9633752150700396e-09 3.1010791945141977e-09 0.0000000000000000e+00  -1.2778211340171972e-09 3.4725184949754682e-09 0.0000000000000000e+00  -4.9221916910494416e-10 3.3010364012168729e-09 0.0000000000000000e+00  2.8298784819199019e-13 3.3738643731520482e-12 0.0000000000000000e+00  2.5013564138414747e-13 -2.1199648359791329e-12 0.0000000000000000e+00  -3.8626439518871309e-10 -2.6200551831162911e-09 0.0000000000000000e+00  -1.0150592074624291e-09 -2.7873006841697056e-09 0.0000000000000000e+00  -1.5891054389314235e-09 -2.5374225192515709e-09 0.0000000000000000e+00  -2.0595370337532637e-09 -2.1935026678266094e-09 0.0000000000000000e+00  -2.4205359673731664e-09 -1.8125438979024784e-09 0.0000000000000000e+00  -2.6831876032140923e-09 -1.4249677445232272e-09 0.0000000000000000e+00  -2.8642651475672388e-09 -1.0474530889569828e-09 0.0000000000000000e+00  -2.9805096381594612e-09 -6.8603854747726756e-10 0.0000000000000000e+00  -3.0449573006098416e-09 -3.3898394706538892e-10 0.0000000000000000e+00  -3.0655281372786588e-09 -5.4996484488305255e-14 0.0000000000000000e+00  -3.0448932490657198e-09 3.3887450184998600e-10 0.0000000000000000e+00  -2.9803895435534876e-09 6.8592906218666775e-10 0.0000000000000000e+00  -2.8640154326731875e-09 1.0472531662637726e-09 0.0000000000000000e+00  -2.6827841829596093e-09 1.4245404600791673e-09 0.0000000000000000e+00  -2.4200392229568718e-09 1.8118902792079395e-09 0.0000000000000000e+00  -2.0588918140918467e-09 2.1923924151746094e-09 0.0000000000000000e+00  -1.5887050718523715e-09 2.5356491504708765e-09 0.0000000000000000e+00  -1.0150386396803919e-09 2.7890198932466559e-09 0.0000000000000000e+00  -3.8622776776192126e-10 2.6227804601574562e-09 0.0000000000000000e+00  2.3582674621015717e-13 2.6129161798918948e-12 0.0000000000000000e+00  2.0767694156133673e-13 -1.6476698922801192e-12 0.0000000000000000e+00  -3.1510801110988570e-10 -2.0752269942582792e-09 0.0000000000000000e+00  -8.3475376957846667e-10 -2.2226227351311059e-09 0.0000000000000000e+00  -1.3229589776220755e-09 -2.0478320992432462e-09 0.0000000000000000e+00  -1.7407282259017705e-09 -1.7971796854545756e-09 0.0000000000000000e+00  -2.0784405413413239e-09 -1.5084319692460299e-09 0.0000000000000000e+00  -2.3379306471032526e-09 -1.2031605711423996e-09 0.0000000000000000e+00  -2.5265615369191144e-09 -8.9533175436508150e-10 0.0000000000000000e+00  -2.6533230226369706e-09 -5.9182862430611178e-10 0.0000000000000000e+00  -2.7259533247062627e-09 -2.9409090349001262e-10 0.0000000000000000e+00  -2.7495531981921824e-09 -9.3643395802525320e-14 0.0000000000000000e+00  -2.7258922858625402e-09 2.9389065179317667e-10 0.0000000000000000e+00  -2.6531993106114481e-09 5.9159448329679308e-10 0.0000000000000000e+00  -2.5263650241693724e-09 8.9503144903582577e-10 0.0000000000000000e+00  -2.3376267174364244e-09 1.2026702799899582e-09 0.0000000000000000e+00  -2.0780822361721758e-09 1.5075667077208602e-09 0.0000000000000000e+00  -1.7404311709084720e-09 1.7959079902003574e-09 0.0000000000000000e+00  -1.3229777357376502e-09 2.0465439824039517e-09 0.0000000000000000e+00  -8.3501266029842221e-10 2.2246175072249674e-09 0.0000000000000000e+00  -3.1514641423600750e-10 2.0777641206040125e-09 0.0000000000000000e+00  1.9832683331452764e-13 2.0351636327404266e-12 0.0000000000000000e+00  1.7805715851910102e-13 -1.2616064985994440e-12 0.0000000000000000e+00  -2.6574223326877103e-10 -1.6218722478792229e-09 0.0000000000000000e+00  -7.0784658978772105e-10 -1.7448940374171988e-09 0.0000000000000000e+00  -1.1310930021142432e-09 -1.6205598802361478e-09 0.0000000000000000e+00  -1.5036683922395691e-09 -1.4367663726632281e-09 0.0000000000000000e+00  -1.8153680668246033e-09 -1.2192948740055630e-09 0.0000000000000000e+00  -2.0637160061313683e-09 -9.8289298207751906e-10 0.0000000000000000e+00  -2.2505565035362784e-09 -7.3809058566563234e-10 0.0000000000000000e+00  -2.3797877893118978e-09 -4.9125110522041230e-10 0.0000000000000000e+00  -2.4554016771830952e-09 -2.4517508193690077e-10 0.0000000000000000e+00  -2.4802512372790164e-09 -1.3147065369779023e-13 0.0000000000000000e+00  -2.4553513826295052e-09 2.4489934349630489e-10 0.0000000000000000e+00  -2.3796812974007663e-09 4.9092874050953142e-10 0.0000000000000000e+00  -2.2503975626058442e-09 7.3767834271687175e-10 0.0000000000000000e+00  -2.0635174392446700e-09 9.8234171591086671e-10 0.0000000000000000e+00  -1.8151829433213398e-09 1.2185400474305330e-09 0.0000000000000000e+00  -1.5035692792344349e-09 1.4357927165651660e-09 0.0000000000000000e+00  -1.1312327598014518e-09 1.6196708049710504e-09 0.0000000000000000e+00  -7.0815488811316726e-10 1.7468444442697099e-09 0.0000000000000000e+00  -2.6581609271242126e-10 1.6241439811054230e-09 0.0000000000000000e+00  1.7289709392873075e-13 1.5786101813147182e-12 0.0000000000000000e+00  1.5693495572102792e-13 -9.3435486019100926e-13 0.0000000000000000e+00  -2.3101315557016278e-10 -1.2328560689595609e-09 0.0000000000000000e+00  -6.1764535548053778e-10 -1.3303447606872997e-09 0.0000000000000000e+00  -9.9241992898077190e-10 -1.2422836382383246e-09 0.0000000000000000e+00  -1.3286055666613706e-09 -1.1091197549592670e-09 0.0000000000000000e+00  -1.6164011529460975e-09 -9.4850128805787623e-10 0.0000000000000000e+00  -1.8513211900736308e-09 -7.7032953200544350e-10 0.0000000000000000e+00  -2.0321465823915193e-09 -5.8224753991149181e-10 0.0000000000000000e+00  -2.1596518545083914e-09 -3.8948757369663676e-10 0.0000000000000000e+00  -2.2353033664092320e-09 -1.9502712517995807e-10 0.0000000000000000e+00  -2.2603488912993218e-09 -1.6245830506345912e-13 0.0000000000000000e+00  -2.2352631771225382e-09 1.9468959278695784e-10 0.0000000000000000e+00  -2.1595726287254149e-09 3.8910924786587824e-10 0.0000000000000000e+00  -2.0320355974018743e-09 5.8179282642045428e-10 0.0000000000000000e+00  -1.8511981570308495e-09 7.6976145132383338e-10 0.0000000000000000e+00  -1.6163177331703245e-09 9.4780212436532792e-10 0.0000000000000000e+00  -1.3286097815343885e-09 1.1083318570894143e-09 0.0000000000000000e+00  -9.9258913584297227e-10 1.2416719694631542e-09 0.0000000000000000e+00  -6.1792161097149851e-10 1.3322269643356312e-09 0.0000000000000000e+00  -2.3108587405667969e-10 1.2348917460039628e-09 0.0000000000000000e+00  1.5370057943772806e-13 1.2036590156027555e-12 0.0000000000000000e+00  1.4210005983392724e-13 -6.4715654193130637e-13 0.0000000000000000e+00  -2.0685279763285021e-10 -8.8915601600853437e-10 0.0000000000000000e+00  -5.5446078242546471e-10 -9.6137975123191819e-10 0.0000000000000000e+00  -8.9417002819199892e-10 -9.0111820445509896e-10 0.0000000000000000e+00  -1.2027104960660773e-09 -8.0831125127365999e-10 0.0000000000000000e+00  -1.4708797761143793e-09 -6.9486304885331701e-10 0.0000000000000000e+00  -1.6933182730446281e-09 -5.6724379892567526e-10 0.0000000000000000e+00  -1.8671596848041933e-09 -4.3070680823015269e-10 0.0000000000000000e+00  -1.9913211511888418e-09 -2.8915191499287961e-10 0.0000000000000000e+00  -2.0656719947116145e-09 -1.4513902077763702e-10 0.0000000000000000e+00  -2.0904086444584487e-09 -1.8501300735299709e-13 0.0000000000000000e+00  -2.0656431007553802e-09 1.4475723266952963e-10 0.0000000000000000e+00  -1.9912668789623425e-09 2.8873518491947850e-10 0.0000000000000000e+00  -1.8670899215373876e-09 4.3023311290111847e-10 0.0000000000000000e+00  -1.6932508394453181e-09 5.6669541585463191e-10 0.0000000000000000e+00  -1.4708515359377443e-09 6.9423887038663549e-10 0.0000000000000000e+00  -1.2027508446667779e-09 8.0766050334634845e-10 0.0000000000000000e+00  -8.9431947102466532e-10 9.0067328677492673e-10 0.0000000000000000e+00  -5.5467803320346972e-10 9.6317994851111849e-10 0.0000000000000000e+00  -2.0691187892352115e-10 8.9101924289318146e-10 0.0000000000000000e+00  1.4010975227286809e-13 8.8394510828740218e-13 0.0000000000000000e+00  1.3220503676705629e-13 -3.8623293416557198e-13 0.0000000000000000e+00  -1.9090146080317058e-10 -5.7644719347328239e-10 0.0000000000000000e+00  -5.1255775559226263e-10 -6.2406795246160985e-10 0.0000000000000000e+00  -8.2851207414575870e-10 -5.8654533100580270e-10 0.0000000000000000e+00  -1.1177300232809070e-09 -5.2773803864990810e-10 0.0000000000000000e+00  -1.3715264422371528e-09 -4.5520038259931946e-10 0.000000000000