<?xml version="1.0"?>
<VTKFile type="UnstructuredGrid"  version="0.1"  >
<UnstructuredGrid>
<Piece  NumberOfPoints="651" NumberOfCells="1200">
<Points>
<DataArray  type="Float64"  NumberOfComponents="3"  format="ascii">0 0 0  50000 0 0  100000 0 0  150000 0 0  200000 0 0  250000 0 0  300000 0 0  350000 0 0  400000 0 0  450000 0 0  500000 0 0  550000 0 0  600000 0 0  650000 0 0  700000 0 0  750000 0 0  800000 0 0  850000 0 0  900000 0 0  950000 0 0  1000000 0 0  0 50000 0  50000 50000 0  100000 50000 0  150000 50000 0  200000 50000 0  250000 50000 0  300000 50000 0  350000 50000 0  400000 50000 0  450000 50000 0  500000 50000 0  550000 50000 0  600000 50000 0  650000 50000 0  700000 50000 0  750000 50000 0  800000 50000 0  850000 50000 0  900000 50000 0  950000 50000 0  1000000 50000 0  0 100000 0  50000 100000 0  100000 100000 0  150000 100000 0  200000 100000 0  250000 100000 0  300000 100000 0  350000 100000 0  400000 100000 0  450000 100000 0  500000 100000 0  550000 100000 0  600000 100000 0  650000 100000 0  700000 100000 0  750000 100000 0  800000 100000 0  850000 100000 0  900000 100000 0  950000 100000 0  1000000 100000 0  0 150000 0  50000 150000 0  100000 150000 0  150000 150000 0  200000 150000 0  250000 150000 0  300000 150000 0  350000 150000 0  400000 150000 0  450000 150000 0  500000 150000 0  550000 150000 0  600000 150000 0  650000 150000 0  700000 150000 0  750000 150000 0  800000 150000 0  850000 150000 0  900000 150000 0  950000 150000 0  1000000 150000 0  0 200000 0  50000 200000 0  100000 200000 0  150000 200000 0  200000 200000 0  250000 200000 0  300000 200000 0  350000 200000 0  400000 200000 0  450000 200000 0  500000 200000 0  550000 200000 0  600000 200000 0  650000 200000 0  700000 200000 0  750000 200000 0  800000 200000 0  850000 200000 0  900000 200000 0  950000 200000 0  1000000 200000 0  0 250000 0  50000 250000 0  100000 250000 0  150000 250000 0  200000 250000 0  250000 250000 0  300000 250000 0  350000 250000 0  400000 250000 0  450000 250000 0  500000 250000 0  550000 250000 0  600000 250000 0  650000 250000 0  700000 250000 0  750000 250000 0  800000 250000 0  850000 250000 0  900000 250000 0  950000 250000 0  1000000 250000 0  0 300000 0  50000 300000 0  100000 300000 0  150000 300000 0  200000 300000 0  250000 300000 0  300000 300000 0  350000 300000 0  400000 300000 0  450000 300000 0  500000 300000 0  550000 300000 0  600000 300000 0  650000 300000 0  700000 300000 0  750000 300000 0  800000 300000 0  850000 300000 0  900000 300000 0  950000 300000 0  1000000 300000 0  0 350000 0  50000 350000 0  100000 350000 0  150000 350000 0  200000 350000 0  250000 350000 0  300000 350000 0  350000 350000 0  400000 350000 0  450000 350000 0  500000 350000 0  550000 350000 0  600000 350000 0  650000 350000 0  700000 350000 0  750000 350000 0  800000 350000 0  850000 350000 0  900000 350000 0  950000 350000 0  1000000 350000 0  0 400000 0  50000 400000 0  100000 400000 0  150000 400000 0  200000 400000 0  250000 400000 0  300000 400000 0  350000 400000 0  400000 400000 0  450000 400000 0  500000 400000 0  550000 400000 0  600000 400000 0  650000 400000 0  700000 400000 0  750000 400000 0  800000 400000 0  850000 400000 0  900000 400000 0  950000 400000 0  1000000 400000 0  0 450000 0  50000 450000 0  100000 450000 0  150000 450000 0  200000 450000 0  250000 450000 0  300000 450000 0  350000 450000 0  400000 450000 0  450000 450000 0  500000 450000 0  550000 450000 0  600000 450000 0  650000 450000 0  700000 450000 0  750000 450000 0  800000 450000 0  850000 450000 0  900000 450000 0  950000 450000 0  1000000 450000 0  0 500000 0  50000 500000 0  100000 500000 0  150000 500000 0  200000 500000 0  250000 500000 0  300000 500000 0  350000 500000 0  400000 500000 0  450000 500000 0  500000 500000 0  550000 500000 0  600000 500000 0  650000 500000 0  700000 500000 0  750000 500000 0  800000 500000 0  850000 500000 0  900000 500000 0  950000 500000 0  1000000 500000 0  0 550000 0  50000 550000 0  100000 550000 0  150000 550000 0  200000 550000 0  250000 550000 0  300000 550000 0  350000 550000 0  400000 550000 0  450000 550000 0  500000 550000 0  550000 550000 0  600000 550000 0  650000 550000 0  700000 550000 0  750000 550000 0  800000 550000 0  850000 550000 0  900000 550000 0  950000 550000 0  1000000 550000 0  0 600000 0  50000 600000 0  100000 600000 0  150000 600000 0  200000 600000 0  250000 600000 0  300000 600000 0  350000 600000 0  400000 600000 0  450000 600000 0  500000 600000 0  550000 600000 0  600000 600000 0  650000 600000 0  700000 600000 0  750000 600000 0  800000 600000 0  850000 600000 0  900000 600000 0  950000 600000 0  1000000 600000 0  0 650000 0  50000 650000 0  100000 650000 0  150000 650000 0  200000 650000 0  250000 650000 0  300000 650000 0  350000 650000 0  400000 650000 0  450000 650000 0  500000 650000 0  550000 650000 0  600000 650000 0  650000 650000 0  700000 650000 0  750000 650000 0  800000 650000 0  850000 650000 0  900000 650000 0  950000 650000 0  1000000 650000 0  0 700000 0  50000 700000 0  100000 700000 0  150000 700000 0  200000 700000 0  250000 700000 0  300000 700000 0  350000 700000 0  400000 700000 0  450000 700000 0  500000 700000 0  550000 700000 0  600000 700000 0  650000 700000 0  700000 700000 0  750000 700000 0  800000 700000 0  850000 700000 0  900000 700000 0  950000 700000 0  1000000 700000 0  0 750000 0  50000 750000 0  100000 750000 0  150000 750000 0  200000 750000 0  250000 750000 0  300000 750000 0  350000 750000 0  400000 750000 0  450000 750000 0  500000 750000 0  550000 750000 0  600000 750000 0  650000 750000 0  700000 750000 0  750000 750000 0  800000 750000 0  850000 750000 0  900000 750000 0  950000 750000 0  1000000 750000 0  0 800000 0  50000 800000 0  100000 800000 0  150000 800000 0  200000 800000 0  250000 800000 0  300000 800000 0  350000 800000 0  400000 800000 0  450000 800000 0  500000 800000 0  550000 800000 0  600000 800000 0  650000 800000 0  700000 800000 0  750000 800000 0  800000 800000 0  850000 800000 0  900000 800000 0  950000 800000 0  1000000 800000 0  0 850000 0  50000 850000 0  100000 850000 0  150000 850000 0  200000 850000 0  250000 850000 0  300000 850000 0  350000 850000 0  400000 850000 0  450000 850000 0  500000 850000 0  550000 850000 0  600000 850000 0  650000 850000 0  700000 850000 0  750000 850000 0  800000 850000 0  850000 850000 0  900000 850000 0  950000 850000 0  1000000 850000 0  0 900000 0  50000 900000 0  100000 900000 0  150000 900000 0  200000 900000 0  250000 900000 0  300000 900000 0  350000 900000 0  400000 900000 0  450000 900000 0  500000 900000 0  550000 900000 0  600000 900000 0  650000 900000 0  700000 900000 0  750000 900000 0  800000 900000 0  850000 900000 0  900000 900000 0  950000 900000 0  1000000 900000 0  0 950000 0  50000 950000 0  100000 950000 0  150000 950000 0  200000 950000 0  250000 950000 0  300000 950000 0  350000 950000 0  400000 950000 0  450000 950000 0  500000 950000 0  550000 950000 0  600000 950000 0  650000 950000 0  700000 950000 0  750000 950000 0  800000 950000 0  850000 950000 0  900000 950000 0  950000 950000 0  1000000 950000 0  0 1000000 0  50000 1000000 0  100000 1000000 0  150000 1000000 0  200000 1000000 0  250000 1000000 0  300000 1000000 0  350000 1000000 0  400000 1000000 0  450000 1000000 0  500000 1000000 0  550000 1000000 0  600000 1000000 0  650000 1000000 0  700000 1000000 0  750000 1000000 0  800000 1000000 0  850000 1000000 0  900000 1000000 0  950000 1000000 0  1000000 1000000 0  0 1050000 0  50000 1050000 0  100000 1050000 0  150000 1050000 0  200000 1050000 0  250000 1050000 0  300000 1050000 0  350000 1050000 0  400000 1050000 0  450000 1050000 0  500000 1050000 0  550000 1050000 0  600000 1050000 0  650000 1050000 0  700000 1050000 0  750000 1050000 0  800000 1050000 0  850000 1050000 0  900000 1050000 0  950000 1050000 0  1000000 1050000 0  0 1100000 0  50000 1100000 0  100000 1100000 0  150000 1100000 0  200000 1100000 0  250000 1100000 0  300000 1100000 0  350000 1100000 0  400000 1100000 0  450000 1100000 0  500000 1100000 0  550000 1100000 0  600000 1100000 0  650000 1100000 0  700000 1100000 0  750000 1100000 0  800000 1100000 0  850000 1100000 0  900000 1100000 0  950000 1100000 0  1000000 1100000 0  0 1150000 0  50000 1150000 0  100000 1150000 0  150000 1150000 0  200000 1150000 0  250000 1150000 0  300000 1150000 0  350000 1150000 0  400000 1150000 0  450000 1150000 0  500000 1150000 0  550000 1150000 0  600000 1150000 0  650000 1150000 0  700000 1150000 0  750000 1150000 0  800000 1150000 0  850000 1150000 0  900000 1150000 0  950000 1150000 0  1000000 1150000 0  0 1200000 0  50000 1200000 0  100000 1200000 0  150000 1200000 0  200000 1200000 0  250000 1200000 0  300000 1200000 0  350000 1200000 0  400000 1200000 0  450000 1200000 0  500000 1200000 0  550000 1200000 0  600000 1200000 0  650000 1200000 0  700000 1200000 0  750000 1200000 0  800000 1200000 0  850000 1200000 0  900000 1200000 0  950000 1200000 0  1000000 1200000 0  0 1250000 0  50000 1250000 0  100000 1250000 0  150000 1250000 0  200000 1250000 0  250000 1250000 0  300000 1250000 0  350000 1250000 0  400000 1250000 0  450000 1250000 0  500000 1250000 0  550000 1250000 0  600000 1250000 0  650000 1250000 0  700000 1250000 0  750000 1250000 0  800000 1250000 0  850000 1250000 0  900000 1250000 0  950000 1250000 0  1000000 1250000 0  0 1300000 0  50000 1300000 0  100000 1300000 0  150000 1300000 0  200000 1300000 0  250000 1300000 0  300000 1300000 0  350000 1300000 0  400000 1300000 0  450000 1300000 0  500000 1300000 0  550000 1300000 0  600000 1300000 0  650000 1300000 0  700000 1300000 0  750000 1300000 0  800000 1300000 0  850000 1300000 0  900000 1300000 0  950000 1300000 0  1000000 1300000 0  0 1350000 0  50000 1350000 0  100000 1350000 0  150000 1350000 0  200000 1350000 0  250000 1350000 0  300000 1350000 0  350000 1350000 0  400000 1350000 0  450000 1350000 0  500000 1350000 0  550000 1350000 0  600000 1350000 0  650000 1350000 0  700000 135
[...]
<PointData  Scalars="f_6001"> 
<DataArray  type="Float64"  Name="f_6001"  format="ascii">1.0503492251499472e-01  1.1205894341750726e-01  1.1460587302491020e-01  1.1579848358460321e-01  1.1668504287623002e-01  1.1741484302622149e-01  1.1804141182731248e-01  1.1860112166150225e-01  1.1911851060885051e-01  1.1961075914738070e-01  1.2009116393328681e-01  1.2057135054096306e-01  1.2106290099211468e-01  1.2157897501880056e-01  1.2213654134772674e-01  1.2275973392940398e-01  1.2348066208648806e-01  1.2432030151594477e-01  1.2533637773816519e-01  1.2807774336012345e-01  1.4231079423161749e-01  1.1271754419821248e-01  1.1364617842869656e-01  1.1476318530457405e-01  1.1586674542470185e-01  1.1673916018895578e-01  1.1745111804310826e-01  1.1806469344162762e-01  1.1861592139578227e-01  1.1912736132158286e-01  1.1961496229414616e-01  1.2009129108147795e-01  1.2056743571229270e-01  1.2105445476242660e-01  1.2156481707704629e-01  1.2211421949366988e-01  1.2272430269284144e-01  1.2342851080848978e-01  1.2429599533561367e-01  1.2552127176688879e-01  1.2741764169699846e-01  1.2779453338808125e-01  1.1470927020107041e-01  1.1483450604817862e-01  1.1551147510579371e-01  1.1625870189137305e-01  1.1695885721599569e-01  1.1758639010944900e-01  1.1815171847264014e-01  1.1867176229940407e-01  1.1916103247539057e-01  1.1963124603468707e-01  1.2009233599107960e-01  1.2055340505074259e-01  1.2102358023635930e-01  1.2151288517402439e-01  1.2203326914968374e-01  1.2260006247042790e-01  1.2323455095177567e-01  1.2396653637988353e-01  1.2480881937073832e-01  1.2556573866588619e-01  1.2533557705843754e-01  1.1574864565325380e-01  1.1582819234674138e-01  1.1621770378901136e-01  1.1672651946076094e-01  1.1726330783922793e-01  1.1778583744918344e-01  1.1828389760800498e-01  1.1875816295721459e-01  1.1921368451932952e-01  1.1965671238040604e-01  1.2009359536348831e-01  1.2053061444372565e-01  1.2097411715809966e-01  1.2143069948758191e-01  1.2190725957922567e-01  1.2241056079453362e-01  1.2294500191496864e-01  1.2350355046210218e-01  1.2403841003987816e-01  1.2440969066214774e-01  1.2443204205000533e-01  1.1650944158567045e-01  1.1657230591679256e-01  1.1681616615617865e-01  1.1717333887783786e-01  1.1758353163220116e-01  1.1801193091624355e-01  1.1844087031507594e-01  1.1886357010902561e-01  1.1927886719842674e-01  1.1968832555626574e-01  1.2009474280462543e-01  1.2050140166993697e-01  1.2091166331373324e-01  1.2132859615977688e-01  1.2175432548016915e-01  1.2218857539105026e-01  1.2262529507252626e-01  1.2304550151755975e-01  1.2340654221854042e-01  1.2364186842919131e-01  1.2370258265067351e-01  1.1709369557846228e-01  1.1713903093805461e-01  1.1730802949542385e-01  1.1756892286289355e-01  1.1788786567702449e-01  1.1823878015544857e-01  1.1860488298593876e-01  1.1897682941048338e-01  1.1935009835849701e-01  1.1972306361449923e-01  1.2009566688696718e-01  1.2046854841094574e-01  1.2084240373195625e-01  1.2121733988070074e-01  1.2159197815409339e-01  1.2196197490213928e-01  1.2231759857947450e-01  1.2264048771680744e-01  1.2290184811259665e-01  1.2306791323994368e-01  1.2311401085792389e-01  1.1755009429648342e-01  1.1758353212035440e-01  1.1770886458934235e-01  1.1790802528498202e-01  1.1816159091223981e-01  1.1845141775795359e-01  1.1876374430453381e-01  1.1908919561228140e-01  1.1942187771738935e-01  1.1975827814388749e-01  1.2009632620302262e-01  1.2043463161565927e-01  1.2077182682692986e-01  1.2110589512486333e-01  1.2143335208021508e-01  1.2174817233923967e-01  1.2204050414730991e-01  1.2229567337681350e-01  1.2249478878640850e-01  1.2261848472871817e-01  1.2265198827720025e-01  1.1791211066008034e-01  1.1793799387345663e-01  1.1803544670298735e-01  1.1819337137551011e-01  1.1839977253630470e-01  1.1864222658257173e-01  1.1890999046365183e-01  1.1919468859216875e-01  1.1949015976851152e-01  1.1979195096538847e-01  1.2009673081876827e-01  1.2040171788222320e-01  1.2070413073188024e-01  1.2100062495565750e-01  1.2128668064430215e-01  1.2155595168101094e-01  1.2179971642978830e-01  1.2200679157178823e-01  1.2216445769034232e-01  1.2226071268547016e-01  1.2228650442990534e-01  1.1820159643243669e-01  1.1822245354899848e-01  1.1830111366304182e-01  1.1843033808091027e-01  1.1860224569758998e-01  1.1880811380914880e-01  1.1903964526215549e-01  1.1928967069973523e-01  1.1955229369982727e-01  1.1982271822106950e-01  1.2009692328833547e-01  1.2037128000417835e-01  1.2064214905639542e-01  1.2090547083496225e-01  1.2115636276395363e-01  1.2138877394586373e-01  1.2159531613506097e-01  1.2176746682986739e-01  1.2189634545789259e-01  1.2197408837098127e-01  1.2199485198602956e-01  1.1843299473483090e-01  1.1845035310382147e-01  1.1851587245568819e-01  1.1862453569853013e-01  1.1877087981420170e-01  1.1894853720686011e-01  1.1915101303924382e-01  1.1937222814210009e-01  1.1960674578921077e-01  1.1984976282795042e-01  1.2009695619406784e-01  1.2034425302856036e-01  1.2058756781055296e-01  1.2082253660421981e-01  1.2104428097817106e-01  1.2124725267677035e-01  1.2142523760860839e-01  1.2157161318934838e-01  1.2167992347372718e-01  1.2174473519622647e-01  1.2176201120084951e-01  1.1861623519417706e-01  1.1863109648804643e-01  1.1868721929931794e-01  1.1878092080494723e-01  1.1890820743263519e-01  1.1906422515462411e-01  1.1924375075440144e-01  1.1944158512481172e-01  1.1965277316529344e-01  1.1987266722007989e-01  1.2009687779930808e-01  1.2032115515477014e-01  1.2054123845533035e-01  1.2075270443866958e-01  1.2095084882554606e-01  1.2113064073752568e-01  1.2128679698628929e-01  1.2141401805438180e-01  1.2150739989600549e-01  1.2156297857617662e-01  1.2157776958317251e-01  1.1875833868651124e-01  1.1877140721897508e-01  1.1882077260950520e-01  1.1890358351545510e-01  1.1901675734212036e-01  1.1915641951833633e-01  1.1931822428296918e-01  1.1949763931778580e-01  1.1969013486815305e-01  1.1989127455980331e-01  1.2009672623363887e-01  1.2030221893135437e-01  1.2050347332596137e-01  1.2069613252633429e-01  1.2087572076673532e-01  1.2103765853228077e-01  1.2117736082172088e-01  1.2129043555721994e-01  1.2137297938169231e-01  1.2142193474316498e-01  1.2143494629263352e-01  1.1886431125056131e-01  1.1887611441609577e-01  1.1892070179187247e-01  1.1899575159902598e-01  1.1909874844216817e-01  1.1922644686784319e-01  1.1937509152012460e-01  1.1954062931611961e-01  1.1971886861344667e-01  1.1990557768897550e-01  1.2009652898100977e-01  1.2028750417907721e-01  1.2047427925351968e-01  1.2065261002461453e-01  1.2081823904948674e-01  1.2096694322256088e-01  1.2109463703783696e-01  1.2119753729582536e-01  1.2127238199371834e-01  1.2131667482505029e-01  1.2132843504451685e-01  1.1893766533321816e-01  1.1894862358366284e-01  1.1899001320509427e-01  1.1905984846831896e-01  1.1915595726207043e-01  1.1927548244470949e-01  1.1941504515041726e-01  1.1957091211949750e-01  1.1973913288217099e-01  1.1991563872083325e-01  1.2009630470947022e-01  1.2027698354384929e-01  1.2045352443385568e-01  1.2062179241670366e-01  1.2077770348015608e-01  1.2091728876577838e-01  1.2103679636202053e-01  1.2113283163252499e-01  1.2120252838851037e-01  1.2124372728194713e-01  1.2125465687694835e-01  1.1898073072654985e-01  1.1899120130821056e-01  1.1903073698793604e-01  1.1909755373269693e-01  1.1918966480352693e-01  1.1930442378866950e-01  1.1943866009294699e-01  1.1958882233252742e-01  1.1975110274883569e-01  1.1992153517009271e-01  1.2009606572886267e-01  1.2027060182285480e-01  1.2044104921282454e-01  1.2060334933902975e-01  1.2075352893299406e-01  1.2088777177636026e-01  1.2100251797582816e-01  1.2109458980408989e-01  1.2116133685344421e-01  1.2120077876115742e-01  1.2121123502019171e-01  1.1899483645530112e-01  1.1900514319477931e-01  1.1904404308542071e-01  1.1910984999274203e-01  1.1920063773575629e-01  1.1931382557497663e-01  1.1944630752896868e-01  1.1959458877960680e-01  1.1975490633798673e-01  1.1992332687886333e-01  1.2009582034881243e-01  1.2026831381876150e-01  1.2043673435963811e-01  1.2059705191801805e-01  1.2074533316865613e-01  1.2087781512264821e-01  1.2099100296186860e-01  1.2108179070488283e-01  1.2114759761220412e-01  1.2118649750284551e-01  1.2119680424232371e-01  1.1898040567743312e-01  1.1899086193646741e-01  1.1903030384418067e-01  1.1909705089353498e-01  1.1918912272179674e-01  1.1930386892126463e-01  1.1943811176463083e-01  1.1958829135859517e-01  1.1975059148480031e-01  1.1992103887477006e-01  1.2009557496876222e-01  1.2027010552753215e-01  1.2044053794878917e-01  1.2060281836509741e-01  1.2075298060467783e-01  1.2088721690895532e-01  1.2100197589409795e-01  1.2109408696492791e-01  1.2116090370968882e-01  1.2120043938941427e-01  1.2121090997107498e-01  1.1893698382067650e-01  1.1894791341567777e-01  1.1898911230911456e-01  1.1905880906509990e-01  1.1915484433560439e-01  1.1927435193184652e-01  1.1941393721746885e-01  1.1956984828092129e-01  1.1973811626376923e-01  1.1991465715377564e-01  1.2009533598815471e-01  1.2027600197679165e-01  1.2045250781545390e-01  1.2062072857812735e-01  1.2077659554720761e-01  1.2091615825291539e-01  1.2103568343555450e-01  1.2113179222930591e-01  1.2120162749253065e-01  1.2124301711396206e-01  1.2125397536440670e-01  1.1886320565310818e-01  1.1887496587257473e-01  1.1891925870390668e-01  1.1899410340179963e-01  1.1909700365978806e-01  1.1922469747506415e-01  1.1937340164813828e-01  1.1953903067301049e-01  1.1971736144410536e-01  1.1990413651854777e-01  1.2009511171661529e-01  1.2028606300864952e-01  1.2047277208417831e-01  1.2065101138150530e-01  1.2081654917750034e-01  1.2096519382978176e-01  1.2109289225545680e-01  1.2119588909859901e-01  1.2127093890575250e-01  1.2131552628152915e-01  1.2132732944706362e-01  1.1875669440499166e-01  1.1876970595446021e-01  1.1881866131593288e-01  1.1890120514040518e-01  1.1901427987590427e-01  1.1915398216534437e-01  1.1931591993088984e-01  1.1949550817129086e-01  1.1968816737166377e-01  1.1988942176627074e-01  1.2009491446398624e-01  1.2030036613782180e-01  1.2050150582947203e-01  1.2069400137983921e-01  1.2087341641465583e-01  1.2103522117928871e-01  1.2117488335550471e-01  1.2128805718216995e-01  1.2137086808811984e-01  1.2142023347864991e-01  1.2143330201111374e-01  1.1861387111445290e-01  1.1862866212144876e-01  1.1868424080161989e-01  1.1877762264324353e-01  1.1890484371133606e-01  1.1906099996009965e-01  1.1924079187207925e-01  1.1943893625895571e-01  1.1965040224229492e-01  1.1987048554285507e-01  1.2009476289831715e-01  1.2031897347754533e-01  1.2053886753233174e-01  1.2075005557281346e-01  1.2094788994322375e-01  1.2112741554300106e-01  1.2128343326499000e-01  1.2141071989267795e-01  1.2150442139830721e-01  1.2156054420957871e-01  1.2157540550344806e-01  1.1842962949677618e-01  1.1844690550139918e-01  1.1851171722389847e-01  1.1862002750827721e-01  1.1876640308901718e-01  1.1894438802085514e-01  1.1914735971945442e-01  1.1936910409340565e-01  1.1960407288707249e-01  1.1984738766906504e-01  1.2009468450355755e-01  1.2034187786967496e-01  1.2058489490841459e-01  1.2081941255552525e-01  1.2104062765838153e-01  1.2124310349076522e-01  1.2142076088342363e-01  1.2156710499909518e-01  1.2167576824193707e-01  1.2174128759380376e-01  1.2175864596279434e-01  1.1819678871159639e-01  1.1821755232664466e-01  1.1829529523973331e-01  1.1842417386775843e-01  1.1859632456256480e-01  1.1880286675176202e-01  1.1903527793367207e-01  1.1928616986266341e-01  1.1954949164123022e-01  1.1982036069344724e-01  1.2009471740929011e-01  1.2036892247655610e-01  1.2063934699779832e-01  1.2090196999789035e-01  1.2115199543547002e-01  1.2138352688847667e-01  1.2158939500003546e-01  1.2176130261671514e-01  1.2189052703458353e-01  1.2196918714862684e-01  1.2199004426518864e-01  1.1790513626772094e-01  1.1793092801215610e-01  1.1802718300728388e-01  1.1818484912583786e-01  1.1839192426783771e-01  1.1863568901661500e-01  1.1890496005332377e-01  1.1919101574196833e-01  1.1948750996574557e-01  1.1978992281540257e-01  1.2009490987885749e-01  1.2039968973223730e-01  1.2070148092911429e-01  1.2099695210545698e-01  1.2128165023397386e-01  1.2154941411505386e-01  1.2179186816132088e-01  1.2199826932211542e-01  1.2215619399463817e-01  1.2225364682416889e-01  1.2227953003754514e-01  1.1753965242042641e-01  1.1757315596890844e-01  1.1769685191121802e-01  1.1789596732081289e-01  1.1815113655031635e-01  1.1844346835838654e-01  1.1875828861741103e-01  1.1908574557276276e-01  1.1941981387069621e-01  1.1975700908196672e-01  1.2009531449460337e-01  1.2043336255373849e-01  1.2076976298023662e-01  1.2110244508534451e-01  1.2142789639309204e-01  1.2174022293967218e-01  1.2203004978538592e-01  1.2228361541264367e-01  1.2248277610828336e-01  1.2260810857727129e-01  1.2264154640114228e-01  1.1707762983970335e-01  1.1712372745768344e-01  1.1728979258503026e-01  1.1755115298081927e-01  1.1787404211815208e-01  1.1822966579548719e-01  1.1859966254353299e-01  1.1897430081692560e-01  1.1934923696567010e-01  1.1972309228668050e-01  1.2009597381065903e-01  1.2046857708312698e-01  1.2084154233912917e-01  1.2121481128714270e-01  1.2158675771168725e-01  1.2195286054217738e-01  1.2230377502060139e-01  1.2262271783473233e-01  1.2288361120220201e-01  1.2305260975957125e-01  1.2309794511916353e-01  1.1648905804695456e-01  1.1654977226843646e-01  1.1678509847908687e-01  1.1714613918006718e-01  1.1756634562510054e-01  1.1800306530657642e-01  1.1843731521745751e-01  1.1886304453784975e-01  1.1927997738389334e-01  1.1969023902768952e-01  1.2009689789300104e-01  1.2050331514136073e-01  1.2091277349919964e-01  1.2132807058860069e-01  1.2175077038255028e-01  1.2217970978138261e-01  1.2260810906542488e-01  1.2301830181978812e-01  1.2337547454144734e-01  1.2361933478083351e-01  1.2368219911195560e-01  1.1575959864762463e-01  1.1578195003548082e-01  1.1615323065774928e-01  1.1668809023552483e-01  1.1724663878265831e-01  1.1778107990309333e-01  1.1828438111840124e-01  1.1876094121004499e-01  1.1921752353952716e-01  1.1966102625390111e-01  1.2009804533413841e-01  1.2053492831722065e-01  1.2097795617829708e-01  1.2143347774041194e-01  1.2190774308962146e-01  1.2240580324844284e-01  1.2292833285839823e-01  1.2346512123686511e-01  1.2397393690861475e-01  1.2436344835088495e-01  1.2444299504437245e-01  1.1485606363919587e-01  1.1462590203174322e-01  1.1538282132688846e-01  1.1622510431774324e-01  1.1695708974585145e-01  1.1759157822719933e-01  1.1815837154794351e-01  1.1867875552360282e-01  1.1916806046126782e-01  1.1963823564688444e-01  1.2009930470654738e-01  1.2056039466293987e-01  1.2103060822223627e-01  1.2151987839822270e-01  1.2203992222498650e-01  1.2260525058817742e-01  1.2323278348163051e-01  1.2393293880625295e-01  1.2468016559183237e-01  1.2535713464944792e-01  1.2548237049655603e-01  1.1239710730955005e-01  1.1277399900063328e-01  1.1467036893073557e-01  1.1589564536201304e-01  1.1676312988913780e-01  1.1746733800478619e-01  1.1807742120395770e-01  1.1862682362058122e-01  1.1913718593520084e-01  1.1962420498533463e-01  1.2010034961614934e-01  1.2057667840348105e-01  1.2106427937604428e-01  1.2157571930184474e-01  1.2212694725599924e-01  1.2274052265451840e-01  1.2345248050867065e-01  1.2432489527292448e-01  1.2542845539305225e-01  1.2654546226892488e-01  1.2747409649941605e-01  9.7880846466149057e-02  1.1211389733743662e-01  1.1485526295945375e-01  1.1587133918168439e-01  1.1671097861114037e-01  1.1743190676822386e-01  1.1805509934990099e-01  1.1861266567882708e-01  1.1912873970551291e-01  1.1962029015666442e-01  1.2010047676434063e-01  1.2058088155024660e-01  1.2107313008877674e-01  1.2159051903612487e-01  1.2215022887031453e-01  1.2277679767140535e-01  1.2350659782139654e-01  1.2439315711302262e-01  1.2558576767271171e-01  1.2813269728010510e-01  1.3515671818266642e-01  </DataArray> 
</PointData> 
</Piece>
</UnstructuredGrid>
</VTKFile>