<?xml version="1.0"?>
<VTKFile type="UnstructuredGrid"  version="0.1"  >
<UnstructuredGrid>
<Piece  NumberOfPoints="651" NumberOfCells="1200">
<Points>
<DataArray  type="Float64"  NumberOfComponents="3"  format="ascii">0 0 0  50000 0 0  100000 0 0  150000 0 0  200000 0 0  250000 0 0  300000 0 0  350000 0 0  400000 0 0  450000 0 0  500000 0 0  550000 0 0  600000 0 0  650000 0 0  700000 0 0  750000 0 0  800000 0 0  850000 0 0  900000 0 0  950000 0 0  1000000 0 0  0 50000 0  50000 50000 0  100000 50000 0  150000 50000 0  200000 50000 0  250000 50000 0  300000 50000 0  350000 50000 0  400000 50000 0  450000 50000 0  500000 50000 0  550000 50000 0  600000 50000 0  650000 50000 0  700000 50000 0  750000 50000 0  800000 50000 0  850000 50000 0  900000 50000 0  950000 50000 0  1000000 50000 0  0 100000 0  50000 100000 0  100000 100000 0  150000 100000 0  200000 100000 0  250000 100000 0  300000 100000 0  350000 100000 0  400000 100000 0  450000 100000 0  500000 100000 0  550000 100000 0  600000 100000 0  650000 100000 0  700000 100000 0  750000 100000 0  800000 100000 0  850000 100000 0  900000 100000 0  950000 100000 0  1000000 100000 0  0 150000 0  50000 150000 0  100000 150000 0  150000 150000 0  200000 150000 0  250000 150000 0  300000 150000 0  350000 150000 0  400000 150000 0  450000 150000 0  500000 150000 0  550000 150000 0  600000 150000 0  650000 150000 0  700000 150000 0  750000 150000 0  800000 150000 0  850000 150000 0  900000 150000 0  950000 150000 0  1000000 150000 0  0 200000 0  50000 200000 0  100000 200000 0  150000 200000 0  200000 200000 0  250000 200000 0  300000 200000 0  350000 200000 0  400000 200000 0  450000 200000 0  500000 200000 0  550000 200000 0  600000 200000 0  650000 200000 0  700000 200000 0  750000 200000 0  800000 200000 0  850000 200000 0  900000 200000 0  950000 200000 0  1000000 200000 0  0 250000 0  50000 250000 0  100000 250000 0  150000 250000 0  200000 250000 0  250000 250000 0  300000 250000 0  350000 250000 0  400000 250000 0  450000 250000 0  500000 250000 0  550000 250000 0  600000 250000 0  650000 250000 0  700000 250000 0  750000 250000 0  800000 250000 0  850000 250000 0  900000 250000 0  950000 250000 0  1000000 250000 0  0 300000 0  50000 300000 0  100000 300000 0  150000 300000 0  200000 300000 0  250000 300000 0  300000 300000 0  350000 300000 0  400000 300000 0  450000 300000 0  500000 300000 0  550000 300000 0  600000 300000 0  650000 300000 0  700000 300000 0  750000 300000 0  800000 300000 0  850000 300000 0  900000 300000 0  950000 300000 0  1000000 300000 0  0 350000 0  50000 350000 0  100000 350000 0  150000 350000 0  200000 350000 0  250000 350000 0  300000 350000 0  350000 350000 0  400000 350000 0  450000 350000 0  500000 350000 0  550000 350000 0  600000 350000 0  650000 350000 0  700000 350000 0  750000 350000 0  800000 350000 0  850000 350000 0  900000 350000 0  950000 350000 0  1000000 350000 0  0 400000 0  50000 400000 0  100000 400000 0  150000 400000 0  200000 400000 0  250000 400000 0  300000 400000 0  350000 400000 0  400000 400000 0  450000 400000 0  500000 400000 0  550000 400000 0  600000 400000 0  650000 400000 0  700000 400000 0  750000 400000 0  800000 400000 0  850000 400000 0  900000 400000 0  950000 400000 0  1000000 400000 0  0 450000 0  50000 450000 0  100000 450000 0  150000 450000 0  200000 450000 0  250000 450000 0  300000 450000 0  350000 450000 0  400000 450000 0  450000 450000 0  500000 450000 0  550000 450000 0  600000 450000 0  650000 450000 0  700000 450000 0  750000 450000 0  800000 450000 0  850000 450000 0  900000 450000 0  950000 450000 0  1000000 450000 0  0 500000 0  50000 500000 0  100000 500000 0  150000 500000 0  200000 500000 0  250000 500000 0  300000 500000 0  350000 500000 0  400000 500000 0  450000 500000 0  500000 500000 0  550000 500000 0  600000 500000 0  650000 500000 0  700000 500000 0  750000 500000 0  800000 500000 0  850000 500000 0  900000 500000 0  950000 500000 0  1000000 500000 0  0 550000 0  50000 550000 0  100000 550000 0  150000 550000 0  200000 550000 0  250000 550000 0  300000 550000 0  350000 550000 0  400000 550000 0  450000 550000 0  500000 550000 0  550000 550000 0  600000 550000 0  650000 550000 0  700000 550000 0  750000 550000 0  800000 550000 0  850000 550000 0  900000 550000 0  950000 550000 0  1000000 550000 0  0 600000 0  50000 600000 0  100000 600000 0  150000 600000 0  200000 600000 0  250000 600000 0  300000 600000 0  350000 600000 0  400000 600000 0  450000 600000 0  500000 600000 0  550000 600000 0  600000 600000 0  650000 600000 0  700000 600000 0  750000 600000 0  800000 600000 0  850000 600000 0  900000 600000 0  950000 600000 0  1000000 600000 0  0 650000 0  50000 650000 0  100000 650000 0  150000 650000 0  200000 650000 0  250000 650000 0  300000 650000 0  350000 650000 0  400000 650000 0  450000 650000 0  500000 650000 0  550000 650000 0  600000 650000 0  650000 650000 0  700000 650000 0  750000 650000 0  800000 650000 0  850000 650000 0  900000 650000 0  950000 650000 0  1000000 650000 0  0 700000 0  50000 700000 0  100000 700000 0  150000 700000 0  200000 700000 0  250000 700000 0  300000 700000 0  350000 700000 0  400000 700000 0  450000 700000 0  500000 700000 0  550000 700000 0  600000 700000 0  650000 700000 0  700000 700000 0  750000 700000 0  800000 700000 0  850000 700000 0  900000 700000 0  950000 700000 0  1000000 700000 0  0 750000 0  50000 750000 0  100000 750000 0  150000 750000 0  200000 750000 0  250000 750000 0  300000 750000 0  350000 750000 0  400000 750000 0  450000 750000 0  500000 750000 0  550000 750000 0  600000 750000 0  650000 750000 0  700000 750000 0  750000 750000 0  800000 750000 0  850000 750000 0  900000 750000 0  950000 750000 0  1000000 750000 0  0 800000 0  50000 800000 0  100000 800000 0  150000 800000 0  200000 800000 0  250000 800000 0  300000 800000 0  350000 800000 0  400000 800000 0  450000 800000 0  500000 800000 0  550000 800000 0  600000 800000 0  650000 800000 0  700000 800000 0  750000 800000 0  800000 800000 0  850000 800000 0  900000 800000 0  950000 800000 0  1000000 800000 0  0 850000 0  50000 850000 0  100000 850000 0  150000 850000 0  200000 850000 0  250000 850000 0  300000 850000 0  350000 850000 0  400000 850000 0  450000 850000 0  500000 850000 0  550000 850000 0  600000 850000 0  650000 850000 0  700000 850000 0  750000 850000 0  800000 850000 0  850000 850000 0  900000 850000 0  950000 850000 0  1000000 850000 0  0 900000 0  50000 900000 0  100000 900000 0  150000 900000 0  200000 900000 0  250000 900000 0  300000 900000 0  350000 900000 0  400000 900000 0  450000 900000 0  500000 900000 0  550000 900000 0  600000 900000 0  650000 900000 0  700000 900000 0  750000 900000 0  800000 900000 0  850000 900000 0  900000 900000 0  950000 900000 0  1000000 900000 0  0 950000 0  50000 950000 0  100000 950000 0  150000 950000 0  200000 950000 0  250000 950000 0  300000 950000 0  350000 950000 0  400000 950000 0  450000 950000 0  500000 950000 0  550000 950000 0  600000 950000 0  650000 950000 0  700000 950000 0  750000 950000 0  800000 950000 0  850000 950000 0  900000 950000 0  950000 950000 0  1000000 950000 0  0 1000000 0  50000 1000000 0  100000 1000000 0  150000 1000000 0  200000 1000000 0  250000 1000000 0  300000 1000000 0  350000 1000000 0  400000 1000000 0  450000 1000000 0  500000 1000000 0  550000 1000000 0  600000 1000000 0  650000 1000000 0  700000 1000000 0  750000 1000000 0  800000 1000000 0  850000 1000000 0  900000 1000000 0  950000 1000000 0  1000000 1000000 0  0 1050000 0  50000 1050000 0  100000 1050000 0  150000 1050000 0  200000 1050000 0  250000 1050000 0  300000 1050000 0  350000 1050000 0  400000 1050000 0  450000 1050000 0  500000 1050000 0  550000 1050000 0  600000 1050000 0  650000 1050000 0  700000 1050000 0  750000 1050000 0  800000 1050000 0  850000 1050000 0  900000 1050000 0  950000 1050000 0  1000000 1050000 0  0 1100000 0  50000 1100000 0  100000 1100000 0  150000 1100000 0  200000 1100000 0  250000 1100000 0  300000 1100000 0  350000 1100000 0  400000 1100000 0  450000 1100000 0  500000 1100000 0  550000 1100000 0  600000 1100000 0  650000 1100000 0  700000 1100000 0  750000 1100000 0  800000 1100000 0  850000 1100000 0  900000 1100000 0  950000 1100000 0  1000000 1100000 0  0 1150000 0  50000 1150000 0  100000 1150000 0  150000 1150000 0  200000 1150000 0  250000 1150000 0  300000 1150000 0  350000 1150000 0  400000 1150000 0  450000 1150000 0  500000 1150000 0  550000 1150000 0  600000 1150000 0  650000 1150000 0  700000 1150000 0  750000 1150000 0  800000 1150000 0  850000 1150000 0  900000 1150000 0  950000 1150000 0  1000000 1150000 0  0 1200000 0  50000 1200000 0  100000 1200000 0  150000 1200000 0  200000 1200000 0  250000 1200000 0  300000 1200000 0  350000 1200000 0  400000 1200000 0  450000 1200000 0  500000 1200000 0  550000 1200000 0  600000 1200000 0  650000 1200000 0  700000 1200000 0  750000 1200000 0  800000 1200000 0  850000 1200000 0  900000 1200000 0  950000 1200000 0  1000000 1200000 0  0 1250000 0  50000 1250000 0  100000 1250000 0  150000 1250000 0  200000 1250000 0  250000 1250000 0  300000 1250000 0  350000 1250000 0  400000 1250000 0  450000 1250000 0  500000 1250000 0  550000 1250000 0  600000 1250000 0  650000 1250000 0  700000 1250000 0  750000 1250000 0  800000 1250000 0  850000 1250000 0  900000 1250000 0  950000 1250000 0  1000000 1250000 0  0 1300000 0  50000 1300000 0  100000 1300000 0  150000 1300000 0  200000 1300000 0  250000 1300000 0  300000 1300000 0  350000 1300000 0  400000 1300000 0  450000 1300000 0  500000 1300000 0  550000 1300000 0  600000 1300000 0  650000 1300000 0  700000 1300000 0  750000 1300000 0  800000 1300000 0  850000 1300000 0  900000 1300000 0  950000 1300000 0  1000000 1300000 0  0 1350000 0  50000 1350000 0  100000 1350000 0  150000 1350000 0  200000 1350000 0  250000 1350000 0  300000 1350000 0  350000 1350000 0  400000 1350000 0  450000 1350000 0  500000 1350000 0  550000 1350000 0  600000 1350000 0  650000 1350000 0  700000 135
[...]
<PointData  Scalars="f_6001"> 
<DataArray  type="Float64"  Name="f_6001"  format="ascii">1.0514456059271421e-01  1.1221105074030695e-01  1.1479512129742600e-01  1.1600281629708561e-01  1.1689872179781005e-01  1.1763632339896268e-01  1.1826975251402974e-01  1.1883563411530504e-01  1.1935873659785279e-01  1.1985642317310158e-01  1.2034213507248606e-01  1.2082762429571579e-01  1.2132459852339865e-01  1.2184636030604898e-01  1.2241005804617609e-01  1.2304002282796093e-01  1.2376839282784137e-01  1.2461626182934232e-01  1.2564756222096404e-01  1.2843648408320071e-01  1.4266272769802002e-01  1.1288818212125307e-01  1.1382565917475984e-01  1.1495689896877857e-01  1.1607147516495839e-01  1.1695322475092967e-01  1.1767300099471942e-01  1.1829333658569714e-01  1.1885064336799538e-01  1.1936772785848193e-01  1.1986071225498049e-01  1.2034229972238918e-01  1.2082369877364964e-01  1.2131608771213311e-01  1.2183206869352074e-01  1.2238750134379936e-01  1.2300424700793405e-01  1.2371614981857566e-01  1.2459334966463009e-01  1.2583184888450150e-01  1.2774245717211058e-01  1.2814583492807094e-01  1.1490261052671077e-01  1.1502946171419504e-01  1.1571286682104509e-01  1.1646764644858822e-01  1.1717532424516319e-01  1.1780977542087201e-01  1.1838135312550448e-01  1.1890713834191330e-01  1.1940180770459895e-01  1.1987721001131124e-01  1.2034338742957335e-01  1.2080954183594700e-01  1.2128489929977410e-01  1.2177959188973034e-01  1.2230569914395320e-01  1.2287872810901299e-01  1.2352024020290155e-01  1.2426041098373541e-01  1.2511194239473425e-01  1.2587682560771254e-01  1.2564503442687686e-01  1.1595302370843470e-01  1.1603304776183565e-01  1.1642641390684676e-01  1.1694062686369425e-01  1.1748323538413409e-01  1.1801147051085070e-01  1.1851500245210221e-01  1.1899449362877895e-01  1.1945503822498305e-01  1.1990295208920712e-01  1.2034465320087942e-01  1.2078649100018565e-01  1.2123488225572845e-01  1.2169649552225388e-01  1.2217830723218333e-01  1.2268716418819200e-01  1.2322753123663936e-01  1.2379229984396713e-01  1.2433307865963596e-01  1.2470822689732754e-01  1.2472844210284009e-01  1.1672150291618769e-01  1.1678491508512101e-01  1.1703129955053942e-01  1.1739234871957965e-01  1.1780700466128355e-01  1.1824008434179906e-01  1.1867372712687066e-01  1.1910107402954878e-01  1.1952094448545786e-01  1.1993491548605142e-01  1.2034581319747761e-01  1.2075695544970225e-01  1.2117174003003271e-01  1.2159326957791299e-01  1.2202369467132498e-01  1.2246273997991886e-01  1.2290428908914497e-01  1.2332913385501876e-01  1.2369410094043025e-01  1.2393179147663416e-01  1.2399253840596582e-01  1.1731188859024605e-01  1.1735771477781541e-01  1.1752851310161119e-01  1.1779225177977935e-01  1.1811468274307836e-01  1.1846943934485134e-01  1.1883955765692394e-01  1.1921559173022817e-01  1.1959296871392328e-01  1.1997004240297100e-01  1.2034675225468081e-01  1.2072374453243823e-01  1.2110172199935017e-01  1.2148079296376077e-01  1.2185956400519168e-01  1.2223364340727233e-01  1.2259318832807636e-01  1.2291962273276025e-01  1.2318381705967771e-01  1.2335162754655504e-01  1.2339820020574135e-01  1.1777319839056173e-01  1.1780702112259415e-01  1.1793371855815048e-01  1.1813505845718986e-01  1.1839140691079833e-01  1.1868441457162951e-01  1.1900017156290055e-01  1.1932920122846466e-01  1.1966554488668581e-01  1.2000565068990239e-01  1.2034742427398464e-01  1.2068945936509617e-01  1.2103037291899151e-01  1.2136812576627291e-01  1.2169919472591872e-01  1.2201748683102201e-01  1.2231303870630300e-01  1.2257101017433672e-01  1.2277230184429208e-01  1.2289735022038262e-01  1.2293125696720572e-01  1.1813914538527995e-01  1.1816533243506872e-01  1.1826386215153810e-01  1.1842352419603612e-01  1.1863219616957277e-01  1.1887731706226401e-01  1.1914802641023853e-01  1.1943585765068999e-01  1.1973458239545301e-01  1.2003969858036284e-01  1.2034783785855296e-01  1.2065618778292951e-01  1.2096193596063924e-01  1.2126170080677864e-01  1.2155091212039071e-01  1.2182315298024471e-01  1.2206960447963491e-01  1.2227895989615331e-01  1.2243836359406809e-01  1.2253569110146148e-01  1.2256179540740250e-01  1.1843178653008396e-01  1.1845289172840691e-01  1.1853242884550173e-01  1.1866308232160359e-01  1.1883688610323791e-01  1.1904502304926064e-01  1.1927910517676990e-01  1.1953188505879435e-01  1.1979740195435890e-01  1.2007080728191119e-01  1.2034803579135571e-01  1.2062541848637931e-01  1.2089927577666705e-01  1.2116550309215347e-01  1.2141916375549772e-01  1.2165413986099294e-01  1.2186296169676672e-01  1.2203701388927285e-01  1.2216732129718386e-01  1.2224593820814206e-01  1.2226695461531034e-01  1.1866571333178209e-01  1.1868328031855022e-01  1.1874953450159417e-01  1.1885940431425526e-01  1.1900736674692368e-01  1.1918698556230677e-01  1.1939169510879261e-01  1.1961534988585727e-01  1.1985245381029749e-01  1.2009815116322306e-01  1.2034807141810551e-01  1.2059809687922998e-01  1.2084409696992068e-01  1.2108165958864582e-01  1.2130585246966598e-01  1.2151106624531813e-01  1.2169101871030383e-01  1.2183901538007395e-01  1.2194853130816942e-01  1.2201407534353043e-01  1.2203156309742347e-01  1.1885095957211733e-01  1.1886600084968003e-01  1.1892275580046735e-01  1.1901750095869022e-01  1.1914619833886898e-01  1.1930394141680031e-01  1.1948545012434622e-01  1.1968546858756798e-01  1.1989898755559711e-01  1.2012130850247241e-01  1.2034799379844222e-01  1.2057474699985786e-01  1.2079726039594040e-01  1.2101106203162459e-01  1.2121139586780030e-01  1.2139317578123172e-01  1.2155106079908672e-01  1.2167969383224034e-01  1.2177411810791826e-01  1.2183032678272337e-01  1.2184529990473038e-01  1.1899462041763473e-01  1.1900784812610322e-01  1.1905777133939577e-01  1.1914150679298184e-01  1.1925593730928515e-01  1.1939714623262773e-01  1.1956074045399949e-01  1.1974213814128025e-01  1.1993675999651691e-01  1.2014012107080280e-01  1.2034784171109565e-01  1.2055560407907451e-01  1.2075908183532874e-01  1.2095387021142945e-01  1.2113544428454116e-01  1.2129917432098464e-01  1.2144042517892019e-01  1.2155475695966468e-01  1.2163822409356226e-01  1.2168773550507278e-01  1.2170090765021722e-01  1.1910175524768647e-01  1.1911370280632486e-01  1.1915879526393559e-01  1.1923468450166694e-01  1.1933882673900401e-01  1.1946794114306497e-01  1.1961823136233293e-01  1.1978559999427926e-01  1.1996580951829301e-01  1.2015458185950860e-01  1.2034764311308678e-01  1.2054072869253304e-01  1.2072956820593533e-01  1.2090987088530611e-01  1.2107733257367527e-01  1.2122768387517110e-01  1.2135679457507895e-01  1.2146084018015292e-01  1.2153652323738708e-01  1.2158131978090381e-01  1.2159322530860188e-01  1.1917591411909802e-01  1.1918700688627763e-01  1.1922886625377747e-01  1.1929948367987606e-01  1.1939666246644839e-01  1.1951751424410911e-01  1.1965862319315804e-01  1.1981621518887209e-01  1.1998629649549550e-01  1.2016475381354828e-01  1.2034741699773512e-01  1.2053009325985888e-01  1.2070858627534246e-01  1.2087871571970456e-01  1.2103635279053988e-01  1.2117748512676142e-01  1.2129831972539601e-01  1.2139542482177124e-01  1.2146590296232783e-01  1.2150757066867113e-01  1.2151863532630978e-01  1.1921945183676796e-01  1.1923005129296391e-01  1.1927003629878119e-01  1.1933760207792898e-01  1.1943073939474623e-01  1.1954677287144244e-01  1.1968249719272216e-01  1.1983432206889662e-01  1.1999839801773504e-01  1.2017071539681946e-01  1.2034717589477680e-01  1.2052364203056280e-01  1.2069597466307833e-01  1.2086007072367622e-01  1.2101191337846343e-01  1.2114764457735333e-01  1.2126366541707229e-01  1.2135676336968192e-01  1.2142425904579968e-01  1.2146414980699546e-01  1.2147473519567722e-01  1.1923371169345270e-01  1.1924414554521606e-01  1.1928348793486232e-01  1.1935003290245871e-01  1.1944183250354540e-01  1.1955627774669361e-01  1.1969022862170110e-01  1.1984015200945031e-01  1.2000224367597595e-01  1.2017252717617724e-01  1.2034692826849244e-01  1.2052132936080762e-01  1.2069161286100885e-01  1.2085370452753451e-01  1.2100362791528368e-01  1.2113757879029119e-01  1.2125202403343938e-01  1.2134382363452609e-01  1.2141036860212248e-01  1.2144971099176868e-01  1.2146014484353204e-01  1.1921912134130755e-01  1.1922970672998931e-01  1.1926959749118513e-01  1.1933709316730286e-01  1.1943019111991252e-01  1.1954621195963148e-01  1.1968194315852138e-01  1.1983378581330865e-01  1.1999788187390653e-01  1.2017021450642207e-01  1.2034668064220810e-01  1.2052314114016542e-01  1.2069545851924980e-01  1.2085953446808817e-01  1.2101135934426260e-01  1.2114708366554235e-01  1.2126311714223859e-01  1.2135625445905579e-01  1.2142382023820364e-01  1.2146380524402088e-01  1.2147440470021684e-01  1.1917522121067502e-01  1.1918628586831372e-01  1.1922795357465703e-01  1.1929843171521362e-01  1.1939553681158886e-01  1.1951637141022341e-01  1.1965750374644499e-01  1.1981514081728030e-01  1.1998527026164241e-01  1.2016376327712602e-01  1.2034643953924980e-01  1.2052910272343660e-01  1.2070756004148936e-01  1.2087764134811275e-01  1.2103523334382682e-01  1.2117634229287574e-01  1.2129719407053648e-01  1.2139437285710877e-01  1.2146499028320740e-01  1.2150684965070722e-01  1.2151794241788685e-01  1.1910063122838309e-01  1.1911253675608116e-01  1.1915733329959789e-01  1.1923301635683201e-01  1.1933706196190602e-01  1.1946617266181385e-01  1.1961652396330970e-01  1.1978398565167885e-01  1.1996428833104965e-01  1.2015312784445195e-01  1.2034621342389823e-01  1.2053927467747637e-01  1.2072804701869193e-01  1.2090825654270565e-01  1.2107562517465201e-01  1.2122591539391994e-01  1.2135502979798096e-01  1.2145917203531800e-01  1.2153506127304932e-01  1.2158015373066006e-01  1.2159210128929848e-01  1.1899294888676790e-01  1.1900612103191233e-01  1.1905563244342285e-01  1.1913909957732040e-01  1.1925343135806488e-01  1.1939468221600044e-01  1.1955841225244394e-01  1.1973998632555563e-01  1.1993477470165634e-01  1.2013825245791056e-01  1.2034601482588946e-01  1.2055373546618228e-01  1.2075709654046815e-01  1.2095171839570480e-01  1.2113311608298555e-01  1.2129671030435729e-01  1.2143791922769992e-01  1.2155234974400320e-01  1.2163608519758926e-01  1.2168600841088179e-01  1.2169923611935030e-01  1.1884855663225494e-01  1.1886352975426191e-01  1.1891973842906706e-01  1.1901416270474492e-01  1.1914279573789854e-01  1.1930068075575352e-01  1.1948246066918494e-01  1.1968279450536065e-01  1.1989659614104484e-01  1.2011910953712736e-01  1.2034586273854300e-01  1.2057254803451278e-01  1.2079486898138810e-01  1.2100838794941721e-01  1.2120840641263897e-01  1.2138991512018488e-01  1.2154765819811622e-01  1.2167635557829495e-01  1.2177110073651781e-01  1.2182785568730509e-01  1.2184289696486780e-01  1.1866229343956210e-01  1.1867978119345512e-01  1.1874532522881610e-01  1.1885484115691156e-01  1.1900283782668164e-01  1.1918279029166733e-01  1.1938800406731945e-01  1.1961219694833962e-01  1.1984975956706473e-01  1.2009575965775543e-01  1.2034578511887990e-01  1.2059570537376232e-01  1.2084140272668789e-01  1.2107850665112811e-01  1.2130216142819278e-01  1.2150687097467860e-01  1.2168648979006166e-01  1.2183445222273002e-01  1.2194432203539111e-01  1.2201057621843503e-01  1.2202814320520318e-01  1.1842690192167549e-01  1.1844791832884376e-01  1.1852653523980192e-01  1.1865684264771288e-01  1.1883089484021897e-01  1.1903971667599271e-01  1.1927469278148792e-01  1.1952835344483219e-01  1.1979458076031858e-01  1.2006843805060631e-01  1.2034582074562993e-01  1.2062304925507444e-01  1.2089645458262677e-01  1.2116197147819124e-01  1.2141475136021565e-01  1.2164883348772489e-01  1.2185697043374757e-01  1.2203077421538185e-01  1.2216142769148365e-01  1.2224096480857846e-01  1.2226207000690142e-01  1.1813206112958362e-01  1.1815816543552465e-01  1.1825549294291797e-01  1.1841489664083270e-01  1.1862425205735104e-01  1.1887070355674119e-01  1.1914294441659515e-01  1.1943215573020721e-01  1.1973192057634660e-01  1.2003766875405633e-01  1.2034601867843286e-01  1.2065415795662301e-01  1.2095927414153285e-01  1.2125799888629582e-01  1.2154583012674722e-01  1.2181653947472165e-01  1.2206166036741288e-01  1.2227033234094950e-01  1.2242999438544745e-01  1.2252852410191679e-01  1.2255471115170556e-01  1.1776259956978076e-01  1.1779650631660382e-01  1.1792155469269432e-01  1.1812284636264958e-01  1.1838081783068319e-01  1.1867636970596415e-01  1.1899466181106744e-01  1.1932573077071323e-01  1.1966348361799463e-01  1.2000439717188992e-01  1.2034643226300143e-01  1.2068820584708367e-01  1.2102831165030024e-01  1.2136465530852134e-01  1.2169368497408542e-01  1.2200944196535637e-01  1.2230244962618751e-01  1.2255879807979596e-01  1.2276013797883527e-01  1.2288683541439156e-01  1.2292065814642397e-01  1.1729565633124558e-01  1.1734222899043183e-01  1.1751003947730904e-01  1.1777423380422637e-01  1.1810066820891016e-01  1.1846021312971412e-01  1.1883429253179473e-01  1.1921306357322568e-01  1.1959213453763626e-01  1.1997011200454814e-01  1.2034710428230552e-01  1.2072381413401533e-01  1.2110088782306305e-01  1.2147826480675805e-01  1.2185429888006220e-01  1.2222441719213477e-01  1.2257917379390770e-01  1.2290160475720666e-01  1.2316534343537476e-01  1.2333614175917056e-01  1.2338196794673985e-01  1.1670131813102179e-01  1.1676206506035325e-01  1.1699975559655684e-01  1.1736472268196814e-01  1.1778956744784180e-01  1.1823111655706786e-01  1.1867016186566173e-01  1.1910058695907376e-01  1.1952211650695396e-01  1.1993690108728437e-01  1.2034804333950895e-01  1.2075894105093511e-01  1.2117291205152865e-01  1.2159278250743763e-01  1.2202012941011570e-01  1.2245377219518726e-01  1.2288685187570270e-01  1.2330150781740651e-01  1.2366255698644674e-01  1.2390894145186516e-01  1.2397235362079849e-01  1.1596541443414883e-01  1.1598562963966051e-01  1.1636077787735138e-01  1.1690155669301994e-01  1.1746632530034762e-01  1.1800669234879499e-01  1.1851554930480365e-01  1.1899736101473313e-01  1.1945897428125848e-01  1.1990736553680123e-01  1.2034920333610742e-01  1.2079090444777969e-01  1.2123881831200370e-01  1.2169936290820772e-01  1.2217885408488437e-01  1.2268238602613576e-01  1.2321062115285232e-01  1.2375322967329208e-01  1.2426744263013956e-01  1.2466080877515077e-01  1.2474083282855167e-01  1.1504882211011447e-01  1.1481703092927617e-01  1.1558191414225281e-01  1.1643344555325164e-01  1.1717361633408567e-01  1.1781512842797430e-01  1.1838815739303409e-01  1.1891426464725696e-01  1.1940895723721309e-01  1.1988431470104016e-01  1.2035046910741379e-01  1.2081664652567582e-01  1.2129204883238807e-01  1.2178671819507361e-01  1.2231250341148237e-01  1.2288408111611468e-01  1.2351853229182336e-01  1.2422621008839817e-01  1.2498098971594131e-01  1.2566439482279163e-01  1.2579124601027583e-01  1.1254802160891955e-01  1.1295139936487959e-01  1.1486200765248417e-01  1.1610050687235698e-01  1.1697770671841197e-01  1.1768960952905362e-01  1.1830635519318827e-01  1.1886178784346685e-01  1.1937776882485440e-01  1.1987015776333781e-01  1.2035155681459825e-01  1.2083314428200684e-01  1.2132612867850534e-01  1.2184321316899183e-01  1.2240051995128995e-01  1.2302085554226753e-01  1.2374063178605710e-01  1.2462238137202827e-01  1.2573695756820807e-01  1.2686819736222379e-01  1.2780567441573509e-01  9.8031128839051851e-02  1.1225737245374585e-01  1.1504629431601826e-01  1.1607759470764631e-01  1.1692546370914686e-01  1.1765383370902693e-01  1.1828379849081169e-01  1.1884749623093872e-01  1.1936925801358902e-01  1.1986623224127180e-01  1.2035172146450152e-01  1.2083743336388590e-01  1.2133511993913464e-01  1.2185822242168232e-01  1.2242410402295750e-01  1.2305753313802442e-01  1.2379513473917686e-01  1.2469104023990078e-01  1.2589873523955794e-01  1.2848280579667110e-01  1.3554929594429435e-01  </DataArray> 
</PointData> 
</Piece>
</UnstructuredGrid>
</VTKFile>