<?xml version="1.0"?>
<VTKFile type="UnstructuredGrid"  version="0.1"  >
<UnstructuredGrid>
<Piece  NumberOfPoints="651" NumberOfCells="1200">
<Points>
<DataArray  type="Float64"  NumberOfComponents="3"  format="ascii">0 0 0  50000 0 0  100000 0 0  150000 0 0  200000 0 0  250000 0 0  300000 0 0  350000 0 0  400000 0 0  450000 0 0  500000 0 0  550000 0 0  600000 0 0  650000 0 0  700000 0 0  750000 0 0  800000 0 0  850000 0 0  900000 0 0  950000 0 0  1000000 0 0  0 50000 0  50000 50000 0  100000 50000 0  150000 50000 0  200000 50000 0  250000 50000 0  300000 50000 0  350000 50000 0  400000 50000 0  450000 50000 0  500000 50000 0  550000 50000 0  600000 50000 0  650000 50000 0  700000 50000 0  750000 50000 0  800000 50000 0  850000 50000 0  900000 50000 0  950000 50000 0  1000000 50000 0  0 100000 0  50000 100000 0  100000 100000 0  150000 100000 0  200000 100000 0  250000 100000 0  300000 100000 0  350000 100000 0  400000 100000 0  450000 100000 0  500000 100000 0  550000 100000 0  600000 100000 0  650000 100000 0  700000 100000 0  750000 100000 0  800000 100000 0  850000 100000 0  900000 100000 0  950000 100000 0  1000000 100000 0  0 150000 0  50000 150000 0  100000 150000 0  150000 150000 0  200000 150000 0  250000 150000 0  300000 150000 0  350000 150000 0  400000 150000 0  450000 150000 0  500000 150000 0  550000 150000 0  600000 150000 0  650000 150000 0  700000 150000 0  750000 150000 0  800000 150000 0  850000 150000 0  900000 150000 0  950000 150000 0  1000000 150000 0  0 200000 0  50000 200000 0  100000 200000 0  150000 200000 0  200000 200000 0  250000 200000 0  300000 200000 0  350000 200000 0  400000 200000 0  450000 200000 0  500000 200000 0  550000 200000 0  600000 200000 0  650000 200000 0  700000 200000 0  750000 200000 0  800000 200000 0  850000 200000 0  900000 200000 0  950000 200000 0  1000000 200000 0  0 250000 0  50000 250000 0  100000 250000 0  150000 250000 0  200000 250000 0  250000 250000 0  300000 250000 0  350000 250000 0  400000 250000 0  450000 250000 0  500000 250000 0  550000 250000 0  600000 250000 0  650000 250000 0  700000 250000 0  750000 250000 0  800000 250000 0  850000 250000 0  900000 250000 0  950000 250000 0  1000000 250000 0  0 300000 0  50000 300000 0  100000 300000 0  150000 300000 0  200000 300000 0  250000 300000 0  300000 300000 0  350000 300000 0  400000 300000 0  450000 300000 0  500000 300000 0  550000 300000 0  600000 300000 0  650000 300000 0  700000 300000 0  750000 300000 0  800000 300000 0  850000 300000 0  900000 300000 0  950000 300000 0  1000000 300000 0  0 350000 0  50000 350000 0  100000 350000 0  150000 350000 0  200000 350000 0  250000 350000 0  300000 350000 0  350000 350000 0  400000 350000 0  450000 350000 0  500000 350000 0  550000 350000 0  600000 350000 0  650000 350000 0  700000 350000 0  750000 350000 0  800000 350000 0  850000 350000 0  900000 350000 0  950000 350000 0  1000000 350000 0  0 400000 0  50000 400000 0  100000 400000 0  150000 400000 0  200000 400000 0  250000 400000 0  300000 400000 0  350000 400000 0  400000 400000 0  450000 400000 0  500000 400000 0  550000 400000 0  600000 400000 0  650000 400000 0  700000 400000 0  750000 400000 0  800000 400000 0  850000 400000 0  900000 400000 0  950000 400000 0  1000000 400000 0  0 450000 0  50000 450000 0  100000 450000 0  150000 450000 0  200000 450000 0  250000 450000 0  300000 450000 0  350000 450000 0  400000 450000 0  450000 450000 0  500000 450000 0  550000 450000 0  600000 450000 0  650000 450000 0  700000 450000 0  750000 450000 0  800000 450000 0  850000 450000 0  900000 450000 0  950000 450000 0  1000000 450000 0  0 500000 0  50000 500000 0  100000 500000 0  150000 500000 0  200000 500000 0  250000 500000 0  300000 500000 0  350000 500000 0  400000 500000 0  450000 500000 0  500000 500000 0  550000 500000 0  600000 500000 0  650000 500000 0  700000 500000 0  750000 500000 0  800000 500000 0  850000 500000 0  900000 500000 0  950000 500000 0  1000000 500000 0  0 550000 0  50000 550000 0  100000 550000 0  150000 550000 0  200000 550000 0  250000 550000 0  300000 550000 0  350000 550000 0  400000 550000 0  450000 550000 0  500000 550000 0  550000 550000 0  600000 550000 0  650000 550000 0  700000 550000 0  750000 550000 0  800000 550000 0  850000 550000 0  900000 550000 0  950000 550000 0  1000000 550000 0  0 600000 0  50000 600000 0  100000 600000 0  150000 600000 0  200000 600000 0  250000 600000 0  300000 600000 0  350000 600000 0  400000 600000 0  450000 600000 0  500000 600000 0  550000 600000 0  600000 600000 0  650000 600000 0  700000 600000 0  750000 600000 0  800000 600000 0  850000 600000 0  900000 600000 0  950000 600000 0  1000000 600000 0  0 650000 0  50000 650000 0  100000 650000 0  150000 650000 0  200000 650000 0  250000 650000 0  300000 650000 0  350000 650000 0  400000 650000 0  450000 650000 0  500000 650000 0  550000 650000 0  600000 650000 0  650000 650000 0  700000 650000 0  750000 650000 0  800000 650000 0  850000 650000 0  900000 650000 0  950000 650000 0  1000000 650000 0  0 700000 0  50000 700000 0  100000 700000 0  150000 700000 0  200000 700000 0  250000 700000 0  300000 700000 0  350000 700000 0  400000 700000 0  450000 700000 0  500000 700000 0  550000 700000 0  600000 700000 0  650000 700000 0  700000 700000 0  750000 700000 0  800000 700000 0  850000 700000 0  900000 700000 0  950000 700000 0  1000000 700000 0  0 750000 0  50000 750000 0  100000 750000 0  150000 750000 0  200000 750000 0  250000 750000 0  300000 750000 0  350000 750000 0  400000 750000 0  450000 750000 0  500000 750000 0  550000 750000 0  600000 750000 0  650000 750000 0  700000 750000 0  750000 750000 0  800000 750000 0  850000 750000 0  900000 750000 0  950000 750000 0  1000000 750000 0  0 800000 0  50000 800000 0  100000 800000 0  150000 800000 0  200000 800000 0  250000 800000 0  300000 800000 0  350000 800000 0  400000 800000 0  450000 800000 0  500000 800000 0  550000 800000 0  600000 800000 0  650000 800000 0  700000 800000 0  750000 800000 0  800000 800000 0  850000 800000 0  900000 800000 0  950000 800000 0  1000000 800000 0  0 850000 0  50000 850000 0  100000 850000 0  150000 850000 0  200000 850000 0  250000 850000 0  300000 850000 0  350000 850000 0  400000 850000 0  450000 850000 0  500000 850000 0  550000 850000 0  600000 850000 0  650000 850000 0  700000 850000 0  750000 850000 0  800000 850000 0  850000 850000 0  900000 850000 0  950000 850000 0  1000000 850000 0  0 900000 0  50000 900000 0  100000 900000 0  150000 900000 0  200000 900000 0  250000 900000 0  300000 900000 0  350000 900000 0  400000 900000 0  450000 900000 0  500000 900000 0  550000 900000 0  600000 900000 0  650000 900000 0  700000 900000 0  750000 900000 0  800000 900000 0  850000 900000 0  900000 900000 0  950000 900000 0  1000000 900000 0  0 950000 0  50000 950000 0  100000 950000 0  150000 950000 0  200000 950000 0  250000 950000 0  300000 950000 0  350000 950000 0  400000 950000 0  450000 950000 0  500000 950000 0  550000 950000 0  600000 950000 0  650000 950000 0  700000 950000 0  750000 950000 0  800000 950000 0  850000 950000 0  900000 950000 0  950000 950000 0  1000000 950000 0  0 1000000 0  50000 1000000 0  100000 1000000 0  150000 1000000 0  200000 1000000 0  250000 1000000 0  300000 1000000 0  350000 1000000 0  400000 1000000 0  450000 1000000 0  500000 1000000 0  550000 1000000 0  600000 1000000 0  650000 1000000 0  700000 1000000 0  750000 1000000 0  800000 1000000 0  850000 1000000 0  900000 1000000 0  950000 1000000 0  1000000 1000000 0  0 1050000 0  50000 1050000 0  100000 1050000 0  150000 1050000 0  200000 1050000 0  250000 1050000 0  300000 1050000 0  350000 1050000 0  400000 1050000 0  450000 1050000 0  500000 1050000 0  550000 1050000 0  600000 1050000 0  650000 1050000 0  700000 1050000 0  750000 1050000 0  800000 1050000 0  850000 1050000 0  900000 1050000 0  950000 1050000 0  1000000 1050000 0  0 1100000 0  50000 1100000 0  100000 1100000 0  150000 1100000 0  200000 1100000 0  250000 1100000 0  300000 1100000 0  350000 1100000 0  400000 1100000 0  450000 1100000 0  500000 1100000 0  550000 1100000 0  600000 1100000 0  650000 1100000 0  700000 1100000 0  750000 1100000 0  800000 1100000 0  850000 1100000 0  900000 1100000 0  950000 1100000 0  1000000 1100000 0  0 1150000 0  50000 1150000 0  100000 1150000 0  150000 1150000 0  200000 1150000 0  250000 1150000 0  300000 1150000 0  350000 1150000 0  400000 1150000 0  450000 1150000 0  500000 1150000 0  550000 1150000 0  600000 1150000 0  650000 1150000 0  700000 1150000 0  750000 1150000 0  800000 1150000 0  850000 1150000 0  900000 1150000 0  950000 1150000 0  1000000 1150000 0  0 1200000 0  50000 1200000 0  100000 1200000 0  150000 1200000 0  200000 1200000 0  250000 1200000 0  300000 1200000 0  350000 1200000 0  400000 1200000 0  450000 1200000 0  500000 1200000 0  550000 1200000 0  600000 1200000 0  650000 1200000 0  700000 1200000 0  750000 1200000 0  800000 1200000 0  850000 1200000 0  900000 1200000 0  950000 1200000 0  1000000 1200000 0  0 1250000 0  50000 1250000 0  100000 1250000 0  150000 1250000 0  200000 1250000 0  250000 1250000 0  300000 1250000 0  350000 1250000 0  400000 1250000 0  450000 1250000 0  500000 1250000 0  550000 1250000 0  600000 1250000 0  650000 1250000 0  700000 1250000 0  750000 1250000 0  800000 1250000 0  850000 1250000 0  900000 1250000 0  950000 1250000 0  1000000 1250000 0  0 1300000 0  50000 1300000 0  100000 1300000 0  150000 1300000 0  200000 1300000 0  250000 1300000 0  300000 1300000 0  350000 1300000 0  400000 1300000 0  450000 1300000 0  500000 1300000 0  550000 1300000 0  600000 1300000 0  650000 1300000 0  700000 1300000 0  750000 1300000 0  800000 1300000 0  850000 1300000 0  900000 1300000 0  950000 1300000 0  1000000 1300000 0  0 1350000 0  50000 1350000 0  100000 1350000 0  150000 1350000 0  200000 1350000 0  250000 1350000 0  300000 1350000 0  350000 1350000 0  400000 1350000 0  450000 1350000 0  500000 1350000 0  550000 1350000 0  600000 1350000 0  650000 1350000 0  700000 135
[...]
<PointData  Scalars="f_6001"> 
<DataArray  type="Float64"  Name="f_6001"  format="ascii">1.0534754201955479e-01  1.1244983035005045e-01  1.1506528075840371e-01  1.1628574699030544e-01  1.1718955030214960e-01  1.1793373876637248e-01  1.1857296130518771e-01  1.1914405567266415e-01  1.1967198409334259e-01  1.2017426396740624e-01  1.2066445861176700e-01  1.2115442679919747e-01  1.2165598243339246e-01  1.2218254902193255e-01  1.2275142594592157e-01  1.2338710260666857e-01  1.2412173747710786e-01  1.2497668078367617e-01  1.2602160106287227e-01  1.2885048438715602e-01  1.4305734362494960e-01  1.1314264651439321e-01  1.1408759609538625e-01  1.1523086157088151e-01  1.1635474448547500e-01  1.1724437636401985e-01  1.1797075559245526e-01  1.1859680110972461e-01  1.1915924243102845e-01  1.1968109469804761e-01  1.2017862632301055e-01  1.2066465567094167e-01  1.2115049303170332e-01  1.2164741785666805e-01  1.2216814482059325e-01  1.2272867075674609e-01  1.2335104505046607e-01  1.2406946167640087e-01  1.2495489997950612e-01  1.2620443226703229e-01  1.2812635932621955e-01  1.2855352530178873e-01  1.1517625334422614e-01  1.1530447330138260e-01  1.1599331924671444e-01  1.1675447628068968e-01  1.1746850475991809e-01  1.1810879900668644e-01  1.1868565558691249e-01  1.1921629056608991e-01  1.1971552054488664e-01  1.2019530568173770e-01  1.2066578037265367e-01  1.2113623027246719e-01  1.2161596511268148e-01  1.2211520856598573e-01  1.2264615044152241e-01  1.2322444806529943e-01  1.2387189433756968e-01  1.2461895918588345e-01  1.2547821868813100e-01  1.2624984502936398e-01  1.2601761750100940e-01  1.1623599702543172e-01  1.1631642238485068e-01  1.1671304439820525e-01  1.1723181486198493e-01  1.1777933886547096e-01  1.1831239300235839e-01  1.1882054671886279e-01  1.1930445208827087e-01  1.1976923959214611e-01  1.2022128058591955e-01  1.2066705147625013e-01  1.2111295954558300e-01  1.2156548004665471e-01  1.2203134285537240e-01  1.2251759056017063e-01  1.2303114005155551e-01  1.2357650953074600e-01  1.2414652245328783e-01  1.2469230000874168e-01  1.2507077928436391e-01  1.2508922755046176e-01  1.1701096437219308e-01  1.1707483723772108e-01  1.1732335324771435e-01  1.1768767678723789e-01  1.1810610253996326e-01  1.1854313556150729e-01  1.1898075115428397e-01  1.1941202333648947e-01  1.1983575681251232e-01  1.2025353955237478e-01  1.2066822181613843e-01  1.2108315108062936e-01  1.2150175606716861e-01  1.2192716829914582e-01  1.2236155963393650e-01  1.2280465488287527e-01  1.2325028189519655e-01  1.2367904427221656e-01  1.2404733553166489e-01  1.2428703401815495e-01  1.2434776025427176e-01  1.1760652743060286e-01  1.1765276746278580e-01  1.1782508552893656e-01  1.1809122768401364e-01  1.1841660510135146e-01  1.1877460705995789e-01  1.1914811712292518e-01  1.1952760391578940e-01  1.1990845085066884e-01  1.2028899483215151e-01  1.2066917341083817e-01  1.2104963793500917e-01  1.2143109725395239e-01  1.2181366073144990e-01  1.2219592246518286e-01  1.2257345011317886e-01  1.2293630712072939e-01  1.2326573719003585e-01  1.2353232763681943e-01  1.2370161080036458e-01  1.2374857506413239e-01  1.1807198495338574e-01  1.1810613248508380e-01  1.1823398261507168e-01  1.1843716319115094e-01  1.1869586233211302e-01  1.1899155677879082e-01  1.1931021138324707e-01  1.1964226358990036e-01  1.1998170006227232e-01  1.2032493569935410e-01  1.2066985613575835e-01  1.2101504158245438e-01  1.2135909590455549e-01  1.2169996095406681e-01  1.2203408081805013e-01  1.2235530547622624e-01  1.2265357744191792e-01  1.2291391640895312e-01  1.2311704667161372e-01  1.2324323670576040e-01  1.2327748469547381e-01  1.1844125191549727e-01  1.1846769538058251e-01  1.1856713459118788e-01  1.1872826407949028e-01  1.1893885418464499e-01  1.1918622772624993e-01  1.1945942504700435e-01  1.1974990274748348e-01  1.2005137569485040e-01  1.2035930040764475e-01  1.2067027730067864e-01  1.2098146773954710e-01  1.2129003317055154e-01  1.2159256061119253e-01  1.2188443739439500e-01  1.2215918682994946e-01  1.2240790789304290e-01  1.2261918959202139e-01  1.2278006107830955e-01  1.2287829453202410e-01  1.2290466322202720e-01  1.1873655824537821e-01  1.1875787282853081e-01  1.1883815066005224e-01  1.1897001117431856e-01  1.1914541659204432e-01  1.1935546998036595e-01  1.1959170660737321e-01  1.1984681310153736e-01  1.2011477439550415e-01  1.2039069753075204e-01  1.2067047986029590e-01  1.2095041851757404e-01  1.2122679989131988e-01  1.2149548143898352e-01  1.2175148079520200e-01  1.2198862346834574e-01  1.2219937093871434e-01  1.2237502936542861e-01  1.2250654370217672e-01  1.2258589891903264e-01  1.2260712876486038e-01  1.1897262075686788e-01  1.1899036384233030e-01  1.1905723867480159e-01  1.1916812761128659e-01  1.1931745697842971e-01  1.1949873255880361e-01  1.1970532887120350e-01  1.1993104438126437e-01  1.2017033286802763e-01  1.2041829421217740e-01  1.2067051779801087e-01  1.2092284805841536e-01  1.2117111636092472e-01  1.2141086992291966e-01  1.2163713101099202e-01  1.2184423864161952e-01  1.2202585307389184e-01  1.2217521908365866e-01  1.2228575343375563e-01  1.2235191605526788e-01  1.2236958256654799e-01  1.1915956120188148e-01  1.1917475442053316e-01  1.1923204329231399e-01  1.1932766997129282e-01  1.1945755896108365e-01  1.1961675939709804e-01  1.1979994318485550e-01  1.2000180649606652e-01  1.2021729433898051e-01  1.2044166521884378e-01  1.2067044084397596e-01  1.2089928532921473e-01  1.2112385136710233e-01  1.2133962587490602e-01  1.2154180909513969e-01  1.2172526824132038e-01  1.2188461352983379e-01  1.2201443923910248e-01  1.2210974405519302e-01  1.2216648487534440e-01  1.2218161175874549e-01  1.1930453748752096e-01  1.1931789957867484e-01  1.1936829394738072e-01  1.1945281032236763e-01  1.1956830231685314e-01  1.1971081772937173e-01  1.1987592345568204e-01  1.2005899583763649e-01  1.2025541372768768e-01  1.2046065114669235e-01  1.2067028832486237e-01  1.2087996782607337e-01  1.2108532360150388e-01  1.2128191044282791e-01  1.2146516190598466e-01  1.2163040583845730e-01  1.2177296474464673e-01  1.2188835833129995e-01  1.2197260537139690e-01  1.2202258646407758e-01  1.2203589420744798e-01  1.1941265404256547e-01  1.1942472350834005e-01  1.1947024257763633e-01  1.1954684084454066e-01  1.1965195055341597e-01  1.1978226098917150e-01  1.1993394117186867e-01  1.2010285626175631e-01  1.2028472998477409e-01  1.2047524511331352e-01  1.2067008859754219e-01  1.2086495676296852e-01  1.2105554005697113e-01  1.2123750835988395e-01  1.2140651805648128e-01  1.2155826065012720e-01  1.2168856816087853e-01  1.2179358121511775e-01  1.2186997241604657e-01  1.2191519442897576e-01  1.2192722264722800e-01  1.1948749268936247e-01  1.1949869902867108e-01  1.1954095516417411e-01  1.1961223324999525e-01  1.1971031582032486e-01  1.1983228813033676e-01  1.1997470314632425e-01  1.2013375222503897e-01  1.2030540508413429e-01  1.2048551076635128e-01  1.2066986093053544e-01  1.2085422436926624e-01  1.2103436629615645e-01  1.2120606807076871e-01  1.2136516305728826e-01  1.2150760214848702e-01  1.2162955763186742e-01  1.2172756638135050e-01  1.2179870453568123e-01  1.2184076823035565e-01  1.2185194692731323e-01  1.1953142935897045e-01  1.1954213762598016e-01  1.1958250215413985e-01  1.1965070061289032e-01  1.1974470476356944e-01  1.1986181476323686e-01  1.1999879596961013e-01  1.2015202522964308e-01  1.2031761781750033e-01  1.2049152737167633e-01  1.2066961803978878e-01  1.2084771443263996e-01  1.2102163948149451e-01  1.2118725252190740e-01  1.2134049992097722e-01  1.2147748829386670e-01  1.2159458578607725e-01  1.2168855047465227e-01  1.2175667849140120e-01  1.2179694837967495e-01  1.2180764279749014e-01  1.1954581939474859e-01  1.1955636057113844e-01  1.1959607671851798e-01  1.1966324509871737e-01  1.1975589938274044e-01  1.1987140671700251e-01  1.2000659834833662e-01  1.2015790880528875e-01  1.2032149901465528e-01  1.2049335610860959e-01  1.2066936852065792e-01  1.2084538093270629e-01  1.2101723802666059e-01  1.2118082823602710e-01  1.2133213869297918e-01  1.2146733032431331e-01  1.2158283765857542e-01  1.2167549194259844e-01  1.2174266032279782e-01  1.2178237647017734e-01  1.2179291764656719e-01  1.1953109424382569e-01  1.1954178866164085e-01  1.1958205854991462e-01  1.1965018656666353e-01  1.1974415125523859e-01  1.1986124874744915e-01  1.1999823712033865e-01  1.2015148451940848e-01  1.2031709755982135e-01  1.2049102260867590e-01  1.2066911900152710e-01  1.2084720966963955e-01  1.2102111922381555e-01  1.2118671181167277e-01  1.2133994107170569e-01  1.2147692227807896e-01  1.2159403227774641e-01  1.2168803642842552e-01  1.2175623488717599e-01  1.2179659941533566e-01  1.2180730768234539e-01  1.1948679011400259e-01  1.1949796881096017e-01  1.1954003250563464e-01  1.1961117065996535e-01  1.1970917940944847e-01  1.1983113489282889e-01  1.1997357398402762e-01  1.2013266897054717e-01  1.2030437074515947e-01  1.2048451267204970e-01  1.2066887611078046e-01  1.2085322627496461e-01  1.2103333195718161e-01  1.2120498481627691e-01  1.2136403389499165e-01  1.2150644891097913e-01  1.2162842122099105e-01  1.2172650379132065e-01  1.2179778187714183e-01  1.2184003801264484e-01  1.2185124435195342e-01  1.1941151439408794e-01  1.1942354261234017e-01  1.1946876462526940e-01  1.1954515582619818e-01  1.1965016888043742e-01  1.1978047639118874e-01  1.1993221898483467e-01  1.2010122868143200e-01  1.2028319698434486e-01  1.2047378027834750e-01  1.2066864844377381e-01  1.2086349192800247e-01  1.2105400705654189e-01  1.2123588077955960e-01  1.2140479586944727e-01  1.2155647605214447e-01  1.2168678648790000e-01  1.2179189619677533e-01  1.2186849446367962e-01  1.2191401353297592e-01  1.2192608299875049e-01  1.1930284283386808e-01  1.1931615057723849e-01  1.1936613166991920e-01  1.1945037871001613e-01  1.1956577229666931e-01  1.1970833120285874e-01  1.1987357513533141e-01  1.2005682659848814e-01  1.2025341343981223e-01  1.2045876921524275e-01  1.2066844871645376e-01  1.2087808589462376e-01  1.2108332331362844e-01  1.2127974120367956e-01  1.2146281358563399e-01  1.2162791931194430e-01  1.2177043472446294e-01  1.2188592671894845e-01  1.2197044309393534e-01  1.2202083746264121e-01  1.2203419955379509e-01  1.1915712528257077e-01  1.1917225216597184e-01  1.1922899298612324e-01  1.1932429780221374e-01  1.1945412351148242e-01  1.1961346879999582e-01  1.1979692794617654e-01  1.1999911116641022e-01  1.2021488567421396e-01  1.2043945171210152e-01  1.2066829619734028e-01  1.2089707182247247e-01  1.2112144270233571e-01  1.2133693054524973e-01  1.2153879385646073e-01  1.2172197764421820e-01  1.2188117808023258e-01  1.2201106707002339e-01  1.2210669374900218e-01  1.2216398262078304e-01  1.2217917583943470e-01  1.1896915447476854e-01  1.1898682098604858e-01  1.1905298360756086e-01  1.1916351795765782e-01  1.1931288396742458e-01  1.1949449839969691e-01  1.1970160603032440e-01  1.1992786711839676e-01  1.2016762068039170e-01  1.2041588898290108e-01  1.2066821924330555e-01  1.2092044282913905e-01  1.2116840417328882e-01  1.2140769266005212e-01  1.2163340817011296e-01  1.2184000448251281e-01  1.2202128006288666e-01  1.2217060943002979e-01  1.2228149836651474e-01  1.2234837319898602e-01  1.2236611628444846e-01  1.1873160827645633e-01  1.1875283812228403e-01  1.1883219333913998e-01  1.1896370767588807e-01  1.1913936610260231e-01  1.1935011357297091e-01  1.1958725624611463e-01  1.1984325560233314e-01  1.2011193714999679e-01  1.2038831852374259e-01  1.2066825718102071e-01  1.2094803951056463e-01  1.2122396264581255e-01  1.2149192393977933e-01  1.2174703043394346e-01  1.2198326706095067e-01  1.2219332044927224e-01  1.2236872586699797e-01  1.2250058638126424e-01  1.2258086421278563e-01  1.2260217879593825e-01  1.1843407381928979e-01  1.1846044250929287e-01  1.1855867596300737e-01  1.1871954744929550e-01  1.1893082914827398e-01  1.1917955021136745e-01  1.1945429964692186e-01  1.1974617643012435e-01  1.2004870387076534e-01  1.2035726930176975e-01  1.2066845974063820e-01  1.2097943663367212e-01  1.2128736134646653e-01  1.2158883429383344e-01  1.2187931199431251e-01  1.2215250931506685e-01  1.2239988285667175e-01  1.2261047296182645e-01  1.2277160245012879e-01  1.2287104166073415e-01  1.2289748512581937e-01  1.1806125234584350e-01  1.1809550033555688e-01  1.1822169036970352e-01  1.1842482063236406e-01  1.1868515959939924e-01  1.1898343156509092e-01  1.1930465622326701e-01  1.1963877608725033e-01  1.1997964113676167e-01  1.2032369545886272e-01  1.2066888090555875e-01  1.2101380134196303e-01  1.2135703697904479e-01  1.2169647345141671e-01  1.2202852565807000e-01  1.2234718026252620e-01  1.2264287470920393e-01  1.2290157385016597e-01  1.2310475442624519e-01  1.2323260455623307e-01  1.2326675208793111e-01  1.1759016197718532e-01  1.1763712624095309e-01  1.1780640940449819e-01  1.1807299985128167e-01  1.1840242992058805e-01  1.1876528692813856e-01  1.1914281457613456e-01  1.1952507630986750e-01  1.1990763978736503e-01  1.2028909910630819e-01  1.2066956363047923e-01  1.2104974220916587e-01  1.2143028619064854e-01  1.2181113312552791e-01  1.2219061991839208e-01  1.2256412998135935e-01  1.2292213193996568e-01  1.2324750935730350e-01  1.2351365151238052e-01  1.2368596957853126e-01  1.2373220961071414e-01  1.1699097678704645e-01  1.1705170302316317e-01  1.1729140150965306e-01  1.1765969276910125e-01  1.1808845514612121e-01  1.1853408215844244e-01  1.1897717740738122e-01  1.1941156874217189e-01  1.1983698097414906e-01  1.2025558596068826e-01  1.2067051522517923e-01  1.2108519748894286e-01  1.2150298022880529e-01  1.2192671370482809e-01  1.2235798588703353e-01  1.2279560147981020e-01  1.2323263450135415e-01  1.2365106025407945e-01  1.2401538379360293e-01  1.2426389980359620e-01  1.2432777266912419e-01  1.1624950949085731e-01  1.1626795775695468e-01  1.1664643703257657e-01  1.1719221458803025e-01  1.1776222751057203e-01  1.1830759698976250e-01  1.1882114648114733e-01  1.1930739418594560e-01  1.1977325699466324e-01  1.2022577749573493e-01  1.2067168556506781e-01  1.2111745645539838e-01  1.2156949744917178e-01  1.2203428495304698e-01  1.2251819032245502e-01  1.2302634403895930e-01  1.2355939817584667e-01  1.2410692217933263e-01  1.2462569264311227e-01  1.2502231465646685e-01  1.2510274001588578e-01  1.1532111954031120e-01  1.1508889201195514e-01  1.1586051835318729e-01  1.1671977785543486e-01  1.1746684270374866e-01  1.1811428897601887e-01  1.1869258659979587e-01  1.1922352847533257e-01  1.1972277192863676e-01  1.2020250676885101e-01  1.2067295666866452e-01  1.2114343135958047e-01  1.2162321649643151e-01  1.2212244647522819e-01  1.2265308145440557e-01  1.2322993803463148e-01  1.2387023228139973e-01  1.2458426076062804e-01  1.2534541779460323e-01  1.2603426373993520e-01  1.2616248369709168e-01  1.1278521173953204e-01  1.1321237771510029e-01  1.1513430477428548e-01  1.1638383706181230e-01  1.1726927536491784e-01  1.1798769199085260e-01  1.1861006628457250e-01  1.1917059222072532e-01  1.1969131918465047e-01  1.2018824400961520e-01  1.2067408137037680e-01  1.2116011071830790e-01  1.2165764234327081e-01  1.2217949461028990e-01  1.2274193593159370e-01  1.2336798144886295e-01  1.2409436067729823e-01  1.2498399255584296e-01  1.2610787547043639e-01  1.2725114094593024e-01  1.2819609052692565e-01  9.8281393416407181e-02  1.1248825265414389e-01  1.1531713597844392e-01  1.1636205625764301e-01  1.1721699956421122e-01  1.1795163443465027e-01  1.1858731109539720e-01  1.1915618801938616e-01  1.1968275460792624e-01  1.2018431024212120e-01  1.2067427842955164e-01  1.2116447307391233e-01  1.2166675294797598e-01  1.2219468136865436e-01  1.2276577573613076e-01  1.2340499827494592e-01  1.2414918673916862e-01  1.2505299005101245e-01  1.2627345628291295e-01  1.2888890669126332e-01  1.3599119502177412e-01  </DataArray> 
</PointData> 
</Piece>
</UnstructuredGrid>
</VTKFile>