<?xml version="1.0"?>
<VTKFile type="UnstructuredGrid"  version="0.1"  >
<UnstructuredGrid>
<Piece  NumberOfPoints="651" NumberOfCells="1200">
<Points>
<DataArray  type="Float64"  NumberOfComponents="3"  format="ascii">0 0 0  50000 0 0  100000 0 0  150000 0 0  200000 0 0  250000 0 0  300000 0 0  350000 0 0  400000 0 0  450000 0 0  500000 0 0  550000 0 0  600000 0 0  650000 0 0  700000 0 0  750000 0 0  800000 0 0  850000 0 0  900000 0 0  950000 0 0  1000000 0 0  0 50000 0  50000 50000 0  100000 50000 0  150000 50000 0  200000 50000 0  250000 50000 0  300000 50000 0  350000 50000 0  400000 50000 0  450000 50000 0  500000 50000 0  550000 50000 0  600000 50000 0  650000 50000 0  700000 50000 0  750000 50000 0  800000 50000 0  850000 50000 0  900000 50000 0  950000 50000 0  1000000 50000 0  0 100000 0  50000 100000 0  100000 100000 0  150000 100000 0  200000 100000 0  250000 100000 0  300000 100000 0  350000 100000 0  400000 100000 0  450000 100000 0  500000 100000 0  550000 100000 0  600000 100000 0  650000 100000 0  700000 100000 0  750000 100000 0  800000 100000 0  850000 100000 0  900000 100000 0  950000 100000 0  1000000 100000 0  0 150000 0  50000 150000 0  100000 150000 0  150000 150000 0  200000 150000 0  250000 150000 0  300000 150000 0  350000 150000 0  400000 150000 0  450000 150000 0  500000 150000 0  550000 150000 0  600000 150000 0  650000 150000 0  700000 150000 0  750000 150000 0  800000 150000 0  850000 150000 0  900000 150000 0  950000 150000 0  1000000 150000 0  0 200000 0  50000 200000 0  100000 200000 0  150000 200000 0  200000 200000 0  250000 200000 0  300000 200000 0  350000 200000 0  400000 200000 0  450000 200000 0  500000 200000 0  550000 200000 0  600000 200000 0  650000 200000 0  700000 200000 0  750000 200000 0  800000 200000 0  850000 200000 0  900000 200000 0  950000 200000 0  1000000 200000 0  0 250000 0  50000 250000 0  100000 250000 0  150000 250000 0  200000 250000 0  250000 250000 0  300000 250000 0  350000 250000 0  400000 250000 0  450000 250000 0  500000 250000 0  550000 250000 0  600000 250000 0  650000 250000 0  700000 250000 0  750000 250000 0  800000 250000 0  850000 250000 0  900000 250000 0  950000 250000 0  1000000 250000 0  0 300000 0  50000 300000 0  100000 300000 0  150000 300000 0  200000 300000 0  250000 300000 0  300000 300000 0  350000 300000 0  400000 300000 0  450000 300000 0  500000 300000 0  550000 300000 0  600000 300000 0  650000 300000 0  700000 300000 0  750000 300000 0  800000 300000 0  850000 300000 0  900000 300000 0  950000 300000 0  1000000 300000 0  0 350000 0  50000 350000 0  100000 350000 0  150000 350000 0  200000 350000 0  250000 350000 0  300000 350000 0  350000 350000 0  400000 350000 0  450000 350000 0  500000 350000 0  550000 350000 0  600000 350000 0  650000 350000 0  700000 350000 0  750000 350000 0  800000 350000 0  850000 350000 0  900000 350000 0  950000 350000 0  1000000 350000 0  0 400000 0  50000 400000 0  100000 400000 0  150000 400000 0  200000 400000 0  250000 400000 0  300000 400000 0  350000 400000 0  400000 400000 0  450000 400000 0  500000 400000 0  550000 400000 0  600000 400000 0  650000 400000 0  700000 400000 0  750000 400000 0  800000 400000 0  850000 400000 0  900000 400000 0  950000 400000 0  1000000 400000 0  0 450000 0  50000 450000 0  100000 450000 0  150000 450000 0  200000 450000 0  250000 450000 0  300000 450000 0  350000 450000 0  400000 450000 0  450000 450000 0  500000 450000 0  550000 450000 0  600000 450000 0  650000 450000 0  700000 450000 0  750000 450000 0  800000 450000 0  850000 450000 0  900000 450000 0  950000 450000 0  1000000 450000 0  0 500000 0  50000 500000 0  100000 500000 0  150000 500000 0  200000 500000 0  250000 500000 0  300000 500000 0  350000 500000 0  400000 500000 0  450000 500000 0  500000 500000 0  550000 500000 0  600000 500000 0  650000 500000 0  700000 500000 0  750000 500000 0  800000 500000 0  850000 500000 0  900000 500000 0  950000 500000 0  1000000 500000 0  0 550000 0  50000 550000 0  100000 550000 0  150000 550000 0  200000 550000 0  250000 550000 0  300000 550000 0  350000 550000 0  400000 550000 0  450000 550000 0  500000 550000 0  550000 550000 0  600000 550000 0  650000 550000 0  700000 550000 0  750000 550000 0  800000 550000 0  850000 550000 0  900000 550000 0  950000 550000 0  1000000 550000 0  0 600000 0  50000 600000 0  100000 600000 0  150000 600000 0  200000 600000 0  250000 600000 0  300000 600000 0  350000 600000 0  400000 600000 0  450000 600000 0  500000 600000 0  550000 600000 0  600000 600000 0  650000 600000 0  700000 600000 0  750000 600000 0  800000 600000 0  850000 600000 0  900000 600000 0  950000 600000 0  1000000 600000 0  0 650000 0  50000 650000 0  100000 650000 0  150000 650000 0  200000 650000 0  250000 650000 0  300000 650000 0  350000 650000 0  400000 650000 0  450000 650000 0  500000 650000 0  550000 650000 0  600000 650000 0  650000 650000 0  700000 650000 0  750000 650000 0  800000 650000 0  850000 650000 0  900000 650000 0  950000 650000 0  1000000 650000 0  0 700000 0  50000 700000 0  100000 700000 0  150000 700000 0  200000 700000 0  250000 700000 0  300000 700000 0  350000 700000 0  400000 700000 0  450000 700000 0  500000 700000 0  550000 700000 0  600000 700000 0  650000 700000 0  700000 700000 0  750000 700000 0  800000 700000 0  850000 700000 0  900000 700000 0  950000 700000 0  1000000 700000 0  0 750000 0  50000 750000 0  100000 750000 0  150000 750000 0  200000 750000 0  250000 750000 0  300000 750000 0  350000 750000 0  400000 750000 0  450000 750000 0  500000 750000 0  550000 750000 0  600000 750000 0  650000 750000 0  700000 750000 0  750000 750000 0  800000 750000 0  850000 750000 0  900000 750000 0  950000 750000 0  1000000 750000 0  0 800000 0  50000 800000 0  100000 800000 0  150000 800000 0  200000 800000 0  250000 800000 0  300000 800000 0  350000 800000 0  400000 800000 0  450000 800000 0  500000 800000 0  550000 800000 0  600000 800000 0  650000 800000 0  700000 800000 0  750000 800000 0  800000 800000 0  850000 800000 0  900000 800000 0  950000 800000 0  1000000 800000 0  0 850000 0  50000 850000 0  100000 850000 0  150000 850000 0  200000 850000 0  250000 850000 0  300000 850000 0  350000 850000 0  400000 850000 0  450000 850000 0  500000 850000 0  550000 850000 0  600000 850000 0  650000 850000 0  700000 850000 0  750000 850000 0  800000 850000 0  850000 850000 0  900000 850000 0  950000 850000 0  1000000 850000 0  0 900000 0  50000 900000 0  100000 900000 0  150000 900000 0  200000 900000 0  250000 900000 0  300000 900000 0  350000 900000 0  400000 900000 0  450000 900000 0  500000 900000 0  550000 900000 0  600000 900000 0  650000 900000 0  700000 900000 0  750000 900000 0  800000 900000 0  850000 900000 0  900000 900000 0  950000 900000 0  1000000 900000 0  0 950000 0  50000 950000 0  100000 950000 0  150000 950000 0  200000 950000 0  250000 950000 0  300000 950000 0  350000 950000 0  400000 950000 0  450000 950000 0  500000 950000 0  550000 950000 0  600000 950000 0  650000 950000 0  700000 950000 0  750000 950000 0  800000 950000 0  850000 950000 0  900000 950000 0  950000 950000 0  1000000 950000 0  0 1000000 0  50000 1000000 0  100000 1000000 0  150000 1000000 0  200000 1000000 0  250000 1000000 0  300000 1000000 0  350000 1000000 0  400000 1000000 0  450000 1000000 0  500000 1000000 0  550000 1000000 0  600000 1000000 0  650000 1000000 0  700000 1000000 0  750000 1000000 0  800000 1000000 0  850000 1000000 0  900000 1000000 0  950000 1000000 0  1000000 1000000 0  0 1050000 0  50000 1050000 0  100000 1050000 0  150000 1050000 0  200000 1050000 0  250000 1050000 0  300000 1050000 0  350000 1050000 0  400000 1050000 0  450000 1050000 0  500000 1050000 0  550000 1050000 0  600000 1050000 0  650000 1050000 0  700000 1050000 0  750000 1050000 0  800000 1050000 0  850000 1050000 0  900000 1050000 0  950000 1050000 0  1000000 1050000 0  0 1100000 0  50000 1100000 0  100000 1100000 0  150000 1100000 0  200000 1100000 0  250000 1100000 0  300000 1100000 0  350000 1100000 0  400000 1100000 0  450000 1100000 0  500000 1100000 0  550000 1100000 0  600000 1100000 0  650000 1100000 0  700000 1100000 0  750000 1100000 0  800000 1100000 0  850000 1100000 0  900000 1100000 0  950000 1100000 0  1000000 1100000 0  0 1150000 0  50000 1150000 0  100000 1150000 0  150000 1150000 0  200000 1150000 0  250000 1150000 0  300000 1150000 0  350000 1150000 0  400000 1150000 0  450000 1150000 0  500000 1150000 0  550000 1150000 0  600000 1150000 0  650000 1150000 0  700000 1150000 0  750000 1150000 0  800000 1150000 0  850000 1150000 0  900000 1150000 0  950000 1150000 0  1000000 1150000 0  0 1200000 0  50000 1200000 0  100000 1200000 0  150000 1200000 0  200000 1200000 0  250000 1200000 0  300000 1200000 0  350000 1200000 0  400000 1200000 0  450000 1200000 0  500000 1200000 0  550000 1200000 0  600000 1200000 0  650000 1200000 0  700000 1200000 0  750000 1200000 0  800000 1200000 0  850000 1200000 0  900000 1200000 0  950000 1200000 0  1000000 1200000 0  0 1250000 0  50000 1250000 0  100000 1250000 0  150000 1250000 0  200000 1250000 0  250000 1250000 0  300000 1250000 0  350000 1250000 0  400000 1250000 0  450000 1250000 0  500000 1250000 0  550000 1250000 0  600000 1250000 0  650000 1250000 0  700000 1250000 0  750000 1250000 0  800000 1250000 0  850000 1250000 0  900000 1250000 0  950000 1250000 0  1000000 1250000 0  0 1300000 0  50000 1300000 0  100000 1300000 0  150000 1300000 0  200000 1300000 0  250000 1300000 0  300000 1300000 0  350000 1300000 0  400000 1300000 0  450000 1300000 0  500000 1300000 0  550000 1300000 0  600000 1300000 0  650000 1300000 0  700000 1300000 0  750000 1300000 0  800000 1300000 0  850000 1300000 0  900000 1300000 0  950000 1300000 0  1000000 1300000 0  0 1350000 0  50000 1350000 0  100000 1350000 0  150000 1350000 0  200000 1350000 0  250000 1350000 0  300000 1350000 0  350000 1350000 0  400000 1350000 0  450000 1350000 0  500000 1350000 0  550000 1350000 0  600000 1350000 0  650000 1350000 0  700000 135
[...]
<PointData  Scalars="f_6001"> 
<DataArray  type="Float64"  Name="f_6001"  format="ascii">1.0487731117017000e-01  1.1192013710056198e-01  1.1448350567425342e-01  1.1568278871892533e-01  1.1657348428543807e-01  1.1730673794741098e-01  1.1793634350681204e-01  1.1849878518406852e-01  1.1901870310893981e-01  1.1951335867418646e-01  1.1999611253624022e-01  1.2047864623272389e-01  1.2097259740921899e-01  1.2149118902058129e-01  1.2205146937463890e-01  1.2267765991467837e-01  1.2340188297938354e-01  1.2424516406410654e-01  1.2526796834055301e-01  1.2803038378836853e-01  1.4226049324989679e-01  1.1258693479784723e-01  1.1351948335793807e-01  1.1464278996353877e-01  1.1575122570662950e-01  1.1662777265754672e-01  1.1734319129202977e-01  1.1795975896194097e-01  1.1851367757135109e-01  1.1902761593070423e-01  1.1951759974781546e-01  1.1999625616612733e-01  1.2047472654639282e-01  1.2096412246295399e-01  1.2147697177696561e-01  1.2202904340000835e-01  1.2264207569864891e-01  1.2334968982139226e-01  1.2422147499585998e-01  1.2545260627758723e-01  1.2735527725471738e-01  1.2774388521543689e-01  1.1458870980664596e-01  1.1471466046030755e-01  1.1539447747896513e-01  1.1614504765423606e-01  1.1684853315006198e-01  1.1747912834749666e-01  1.1804722278829100e-01  1.1856980787168628e-01  1.1906146785398616e-01  1.1953397808108127e-01  1.1999731987716998e-01  1.2046063984326950e-01  1.2093310884332614e-01  1.2142479850395833e-01  1.2194771576083849e-01  1.2251726912022526e-01  1.2315486628315658e-01  1.2389047439045517e-01  1.2473685107054892e-01  1.2549729797967887e-01  1.2526640272256837e-01  1.1563297016860892e-01  1.1571272838619684e-01  1.1610394598930363e-01  1.1661515086305813e-01  1.1715451548764766e-01  1.1767957054843203e-01  1.1818005266868914e-01  1.1865663108729142e-01  1.1911437595687635e-01  1.1955956647785283e-01  1.1999858208145280e-01  1.2043773404476689e-01  1.2088340054602072e-01  1.2134220968415173e-01  1.2182109424232190e-01  1.2232685447180333e-01  1.2286391831038775e-01  1.2342521960657113e-01  1.2396269911310875e-01  1.2433569287089556e-01  1.2435710003374606e-01  1.1639716711640261e-01  1.1646027420586919e-01  1.1670525183757591e-01  1.1706414036595628e-01  1.1747630865812260e-01  1.1790677961231760e-01  1.1833780084934517e-01  1.1876255757038900e-01  1.1917987894204057e-01  1.1959133470210642e-01  1.1999973510884254e-01  1.2040837842535373e-01  1.2082064202144840e-01  1.2123960945901119e-01  1.2166741719739949e-01  1.2210378957426540e-01  1.2254264672331878e-01  1.2296490606696790e-01  1.2332768480980921e-01  1.2356405819100111e-01  1.2362478874502950e-01  1.1698413538887271e-01  1.1702968812627045e-01  1.1719948338584822e-01  1.1746163613907827e-01  1.1778212287665892e-01  1.1813473797097847e-01  1.1850261815590352e-01  1.1887637387573936e-01  1.1925146114035286e-01  1.1962624488677437e-01  1.2000066582684284e-01  1.2037536686300661e-01  1.2075104673311376e-01  1.2112781302902222e-01  1.2150428052736545e-01  1.2187608430040137e-01  1.2223344355877491e-01  1.2255790192177143e-01  1.2282051682593920e-01  1.2298735481234627e-01  1.2303366320517094e-01  1.1744270796334892e-01  1.1747631621478044e-01  1.1760225289189760e-01  1.1780237816296359e-01  1.1805717552048460e-01  1.1834841026756125e-01  1.1866225521194984e-01  1.1898929038862741e-01  1.1932359318606436e-01  1.1966163370039236e-01  1.2000133076312174e-01  1.2034128701466866e-01  1.2068012804286342e-01  1.2101582719400364e-01  1.2134488288622765e-01  1.2166123984403845e-01  1.2195499692357770e-01  1.2221140652495806e-01  1.2241148528811341e-01  1.2253577998030579e-01  1.2256946207697328e-01  1.1780646414750869e-01  1.1783248188215756e-01  1.1793041138759112e-01  1.1808910507477689e-01  1.1829651134745366e-01  1.1854014579988577e-01  1.1880921341415099e-01  1.1909529833344547e-01  1.1939220961731697e-01  1.1969547253264584e-01  1.2000173934523614e-01  1.2030821488648928e-01  1.2061210402452642e-01  1.2091004589388418e-01  1.2119749832695481e-01  1.2146808387253311e-01  1.2171303784910778e-01  1.2192112232393708e-01  1.2207955758417133e-01  1.2217628735096045e-01  1.2220221746916682e-01  1.1809734657617457e-01  1.1811831352501681e-01  1.1819736183295890e-01  1.1832721879509485e-01  1.1849996570165199e-01  1.1870683805200080e-01  1.1893949849367517e-01  1.1919074311402277e-01  1.1945464702128995e-01  1.1972639091788884e-01  1.2000193423105265e-01  1.2027763031438213e-01  1.2054982202774087e-01  1.2081442986152147e-01  1.2106654729518967e-01  1.2130009377515100e-01  1.2150764500057158e-01  1.2168063736369225e-01  1.2181014842955105e-01  1.2188827821897076e-01  1.2190915374682526e-01  1.1832986406042002e-01  1.1834731478706721e-01  1.1841315940026621e-01  1.1852235670598017e-01  1.1866941713085778e-01  1.1884794269666737e-01  1.1905140722419022e-01  1.1927370218508769e-01  1.1950936458022367e-01  1.1975356798958904e-01  1.2000196834076837e-01  1.2025047292893851e-01  1.2049497629076711e-01  1.2073109317194097e-01  1.2095392131408796e-01  1.2115788541368491e-01  1.2133674123179722e-01  1.2148383435883794e-01  1.2159267830482204e-01  1.2165781417946431e-01  1.2167518392543988e-01  1.1851399233091320e-01  1.1852893330383941e-01  1.1858533592054216e-01  1.1867949937650787e-01  1.1880741044041074e-01  1.1896419184790213e-01  1.1914459521929635e-01  1.1934339632177049e-01  1.1955561608668976e-01  1.1977658434188791e-01  1.2000189028960367e-01  1.2022726351321698e-01  1.2044842243187601e-01  1.2066092223130037e-01  1.2086003572293638e-01  1.2104070757651453e-01  1.2119762902724304e-01  1.2132547507426401e-01  1.2141931833143287e-01  1.2147517587015520e-01  1.2149004749773271e-01  1.1865678514764753e-01  1.1866992414636450e-01  1.1871953644669735e-01  1.1880275658342930e-01  1.1891648665422985e-01  1.1905683345993190e-01  1.1921943028227559e-01  1.1939972288738014e-01  1.1959315959176466e-01  1.1979528252095360e-01  1.2000173849397387e-01  1.2020823580246238e-01  1.2041047431089522e-01  1.2060407593692525e-01  1.2078454315718495e-01  1.2094727422911453e-01  1.2108766195801647e-01  1.2120129309867693e-01  1.2128424560828956e-01  1.2133344709606265e-01  1.2134652973875593e-01  1.1876327215993285e-01  1.1877513924665989e-01  1.1881995018708280e-01  1.1889537154965013e-01  1.1899887537477796e-01  1.1912720054884099e-01  1.1927657357027509e-01  1.1944292173943673e-01  1.1962203310731828e-01  1.1980965543453111e-01  1.2000154064692185e-01  1.2019344995131113e-01  1.2038113879722762e-01  1.2056034238414530e-01  1.2072678259267836e-01  1.2087621582820307e-01  1.2100453679544468e-01  1.2110794401673317e-01  1.2118315979716443e-01  1.2122767558742856e-01  1.2123950013216137e-01  1.1883698246210833e-01  1.1884800026109321e-01  1.1888959780626911e-01  1.1895977927654959e-01  1.1905636167779678e-01  1.1917647404582306e-01  1.1931672115803715e-01  1.1947335166697114e-01  1.1964239595240880e-01  1.1981976556386632e-01  1.2000131556032911e-01  1.2018287850543199e-01  1.2036028345460152e-01  1.2052937536707127e-01  1.2068605040555987e-01  1.2082632045637266e-01  1.2094641541977870e-01  1.2104292422510284e-01  1.2111296684429987e-01  1.2115437324867469e-01  1.2116536263323081e-01  1.1888025691769191e-01  1.1889078454984760e-01  1.1893051911472007e-01  1.1899766740294898e-01  1.1909023271794336e-01  1.1920555582646150e-01  1.1934045076520063e-01  1.1949134892966147e-01  1.1965442409345300e-01  1.1982569084376035e-01  1.2000107564132867e-01  1.2017646601960458e-01  1.2034774786486403e-01  1.2051084291680529e-01  1.2066175862396522e-01  1.2079666025229309e-01  1.2091197064163813e-01  1.2100449666077377e-01  1.2107157507344642e-01  1.2111121565720691e-01  1.2112172907936006e-01  1.1889443086683234e-01  1.1890479387648165e-01  1.1894388963039046e-01  1.1901002322381546e-01  1.1910125884274887e-01  1.1921500324224318e-01  1.1934813537867578e-01  1.1949714348092738e-01  1.1965824630408417e-01  1.1982749143712000e-01  1.2000082926801448e-01  1.2017416709890885e-01  1.2034341223194472e-01  1.2050451505510151e-01  1.2065352315735306e-01  1.2078665529378566e-01  1.2090039969328001e-01  1.2099163531221342e-01  1.2105776890563838e-01  1.2109686465954715e-01  1.2110722766919646e-01  1.1887992945666875e-01  1.1889044287882190e-01  1.1893008346258244e-01  1.1899716187525508e-01  1.1908968789439077e-01  1.1920499828373582e-01  1.1933989991206369e-01  1.1949081561922363e-01  1.1965391067116489e-01  1.1982519251642436e-01  1.2000058289470028e-01  1.2017596769226857e-01  1.2034723444257592e-01  1.2051030960636744e-01  1.2066120777082821e-01  1.2079610270956735e-01  1.2091142581808555e-01  1.2100399113307989e-01  1.2107113942130879e-01  1.2111087398618120e-01  1.2112140161833691e-01  1.1883629590279800e-01  1.1884728528735417e-01  1.1888869169172904e-01  1.1895873431092606e-01  1.1905524311625025e-01  1.1917533807965629e-01  1.1931560813046910e-01  1.1947228316895769e-01  1.1964137508142744e-01  1.1981878003059697e-01  1.2000034297569986e-01  1.2018189297216265e-01  1.2035926258362012e-01  1.2052830686905777e-01  1.2068493737799177e-01  1.2082518449020588e-01  1.2094529685823216e-01  1.2104187925947932e-01  1.2111206072975979e-01  1.2115365827493568e-01  1.2116467607392054e-01  1.1876215840386763e-01  1.1877398294860045e-01  1.1881849873886462e-01  1.1889371451929587e-01  1.1899712174058438e-01  1.1912544270782600e-01  1.1927487594335072e-01  1.1944131615188373e-01  1.1962051973880140e-01  1.1980820858471787e-01  1.2000011788910722e-01  1.2019200310149798e-01  1.2037962542871075e-01  1.2055873679659226e-01  1.2072508496575389e-01  1.2087445798718797e-01  1.2100278316125102e-01  1.2110628698637885e-01  1.2118170834894615e-01  1.2122651928936906e-01  1.2123838637609609e-01  1.1865512879727322e-01  1.1866821143996650e-01  1.1871741292773963e-01  1.1880036543735223e-01  1.1891399657801272e-01  1.1905438430691469e-01  1.1921711537884422e-01  1.1939758259910391e-01  1.1959118422513394e-01  1.1979342273356673e-01  1.1999992004205526e-01  1.2020637601507554e-01  1.2040849894426445e-01  1.2060193564864893e-01  1.2078222825375348e-01  1.2094482507609716e-01  1.2108517188179924e-01  1.2119890195259977e-01  1.2128212208933169e-01  1.2133173438966453e-01  1.2134487338838147e-01  1.1851161103829667e-01  1.1852648266587416e-01  1.1858234020459651e-01  1.1867618346176534e-01  1.1880402950878632e-01  1.1896095095951481e-01  1.1914162281309296e-01  1.1934073630472891e-01  1.1955323610415328e-01  1.1977439502281224e-01  1.1999976824642555e-01  1.2022507419414133e-01  1.2044604244933949e-01  1.2065826221425874e-01  1.2085706331673288e-01  1.2103746668812708e-01  1.2119424809561849e-01  1.2132215915952134e-01  1.2141632261548702e-01  1.2147272523218973e-01  1.2148766620511595e-01  1.1832647461058977e-01  1.1834384435656534e-01  1.1840898023120759e-01  1.1851782417719162e-01  1.1866491730423233e-01  1.1884377312234461e-01  1.1904773722194154e-01  1.1927056536408848e-01  1.1950668224526233e-01  1.1975118560709094e-01  1.1999969019526105e-01  1.2024809054644041e-01  1.2049229395580577e-01  1.2072795635094175e-01  1.2095025131183917e-01  1.2115371583936201e-01  1.2133224140517158e-01  1.2147930183004919e-01  1.2158849913576310e-01  1.2165434374896206e-01  1.2167179447560923e-01  1.1809250478920466e-01  1.1811338031705913e-01  1.1819151010647880e-01  1.1832102117233752e-01  1.1849401353545819e-01  1.1870156476087874e-01  1.1893511124084002e-01  1.1918722867450821e-01  1.1945183650828878e-01  1.1972402822164750e-01  1.1999972430497698e-01  1.2027526761814084e-01  1.2054701151473973e-01  1.2081091542200686e-01  1.2106216004235439e-01  1.2129482048402873e-01  1.2150169283437753e-01  1.2167443974093463e-01  1.2180429670307052e-01  1.2188334501101257e-01  1.2190431195985482e-01  1.1779944106686341e-01  1.1782537118506975e-01  1.1792210095185879e-01  1.1808053621209293e-01  1.1828862068692220e-01  1.1853357466349684e-01  1.1880416020907507e-01  1.1909161264214567e-01  1.1938955451150343e-01  1.1969344364954058e-01  1.1999991919079370e-01  1.2030618600338401e-01  1.2060944891871292e-01  1.2090636020258438e-01  1.2119244512187877e-01  1.2146151273614395e-01  1.2170514718857602e-01  1.2191255346125274e-01  1.2207124714843846e-01  1.2216917665387202e-01  1.2219519438852088e-01  1.1743219645905731e-01  1.1746587855572475e-01  1.1759017324791703e-01  1.1779025201107225e-01  1.1804666161245253e-01  1.1834041869199174e-01  1.1865677564980247e-01  1.1898583134202648e-01  1.1932153049316667e-01  1.1966037152136143e-01  1.2000032777290834e-01  1.2034002483563773e-01  1.2067806534996572e-01  1.2101236814740263e-01  1.2133940332408011e-01  1.2165324826846863e-01  1.2194448301554525e-01  1.2219928037306625e-01  1.2239940564413219e-01  1.2252534232124933e-01  1.2255895057268085e-01  1.1696799533086016e-01  1.1701430372368476e-01  1.1718114171009167e-01  1.1744375661425924e-01  1.1776821497725561e-01  1.1812557423562907e-01  1.1849737800866493e-01  1.1887384550700819e-01  1.1925061180291660e-01  1.1962629167302372e-01  1.2000099270918750e-01  1.2037541364925596e-01  1.2075019739567747e-01  1.2112528466029086e-01  1.2149904038012663e-01  1.2186692056505162e-01  1.2221953565937110e-01  1.2254002239695171e-01  1.2280217515018173e-01  1.2297197040975950e-01  1.2301752314715721e-01  1.1637686979100235e-01  1.1643760034503051e-01  1.1667397372622201e-01  1.1703675246906300e-01  1.1745901181271201e-01  1.1789786896176530e-01  1.1833424133863119e-01  1.1876204907701947e-01  1.1918101651458221e-01  1.1959328011067684e-01  1.2000192342718803e-01  1.2041032383392414e-01  1.2082177959398990e-01  1.2123910096564142e-01  1.2166385768668521e-01  1.2209487892371269e-01  1.2252534987790756e-01  1.2293751817007383e-01  1.2329640669845419e-01  1.2354138433016096e-01  1.2360449141962755e-01  1.1564455850228746e-01  1.1566596566513679e-01  1.1603895942292267e-01  1.1657643892945992e-01  1.1713774022564323e-01  1.1767480406422764e-01  1.1818056429370905e-01  1.1865944885187922e-01  1.1911825799001016e-01  1.1956392449126396e-01  1.2000307645457806e-01  1.2044209205817796e-01  1.2088728257915438e-01  1.2134502744873923e-01  1.2182160586734143e-01  1.2232208798759840e-01  1.2284714304838266e-01  1.2338650767297207e-01  1.2389771254672660e-01  1.2428893014983357e-01  1.2436868836742143e-01  1.1473525581346813e-01  1.1450436055635424e-01  1.1526480746548198e-01  1.1611118414557575e-01  1.1684679225287459e-01  1.1748438941580602e-01  1.1805394277519279e-01  1.1857686003207289e-01  1.1906854969270501e-01  1.1954101869276162e-01  1.2000433865886112e-01  1.2046768045494977e-01  1.2094019068204481e-01  1.2143185066434464e-01  1.2195443574773981e-01  1.2252253018853396e-01  1.2315312538596843e-01  1.2385661088179413e-01  1.2460718105706511e-01  1.2528699807572308e-01  1.2541294872938460e-01  1.1225777332059805e-01  1.1264638128131767e-01  1.1454905225844172e-01  1.1578018354017090e-01  1.1665196871463938e-01  1.1735958283738279e-01  1.1797261513602328e-01  1.1852468675906595e-01  1.1903753607307752e-01  1.1952693198963860e-01  1.2000540236990404e-01  1.2048405878821583e-01  1.2097404260532701e-01  1.2148798096468008e-01  1.2204189957409006e-01  1.2265846724400110e-01  1.2337388587848391e-01  1.2425043282940099e-01  1.2535886857249168e-01  1.2648217517808835e-01  1.2741472373818519e-01  9.7741165286249543e-02  1.1197127474760728e-01  1.1473369019547143e-01  1.1575649447192642e-01  1.1659977555664883e-01  1.1732399862135351e-01  1.1795018916139288e-01  1.1851046951545041e-01  1.1902906112681266e-01  1.1952301230330771e-01  1.2000554599979132e-01  1.2048829986184498e-01  1.2098295542709159e-01  1.2150287335196279e-01  1.2206531502921915e-01  1.2269492058862003e-01  1.2342817425059269e-01  1.2431886981710477e-01  1.2551815286177340e-01  1.2808152143545692e-01  1.3512434736588960e-01  </DataArray> 
</PointData> 
</Piece>
</UnstructuredGrid>
</VTKFile>