<?xml version="1.0"?>
<VTKFile type="UnstructuredGrid"  version="0.1"  >
<UnstructuredGrid>
<Piece  NumberOfPoints="651" NumberOfCells="1200">
<Points>
<DataArray  type="Float64"  NumberOfComponents="3"  format="ascii">0 0 0  50000 0 0  100000 0 0  150000 0 0  200000 0 0  250000 0 0  300000 0 0  350000 0 0  400000 0 0  450000 0 0  500000 0 0  550000 0 0  600000 0 0  650000 0 0  700000 0 0  750000 0 0  800000 0 0  850000 0 0  900000 0 0  950000 0 0  1000000 0 0  0 50000 0  50000 50000 0  100000 50000 0  150000 50000 0  200000 50000 0  250000 50000 0  300000 50000 0  350000 50000 0  400000 50000 0  450000 50000 0  500000 50000 0  550000 50000 0  600000 50000 0  650000 50000 0  700000 50000 0  750000 50000 0  800000 50000 0  850000 50000 0  900000 50000 0  950000 50000 0  1000000 50000 0  0 100000 0  50000 100000 0  100000 100000 0  150000 100000 0  200000 100000 0  250000 100000 0  300000 100000 0  350000 100000 0  400000 100000 0  450000 100000 0  500000 100000 0  550000 100000 0  600000 100000 0  650000 100000 0  700000 100000 0  750000 100000 0  800000 100000 0  850000 100000 0  900000 100000 0  950000 100000 0  1000000 100000 0  0 150000 0  50000 150000 0  100000 150000 0  150000 150000 0  200000 150000 0  250000 150000 0  300000 150000 0  350000 150000 0  400000 150000 0  450000 150000 0  500000 150000 0  550000 150000 0  600000 150000 0  650000 150000 0  700000 150000 0  750000 150000 0  800000 150000 0  850000 150000 0  900000 150000 0  950000 150000 0  1000000 150000 0  0 200000 0  50000 200000 0  100000 200000 0  150000 200000 0  200000 200000 0  250000 200000 0  300000 200000 0  350000 200000 0  400000 200000 0  450000 200000 0  500000 200000 0  550000 200000 0  600000 200000 0  650000 200000 0  700000 200000 0  750000 200000 0  800000 200000 0  850000 200000 0  900000 200000 0  950000 200000 0  1000000 200000 0  0 250000 0  50000 250000 0  100000 250000 0  150000 250000 0  200000 250000 0  250000 250000 0  300000 250000 0  350000 250000 0  400000 250000 0  450000 250000 0  500000 250000 0  550000 250000 0  600000 250000 0  650000 250000 0  700000 250000 0  750000 250000 0  800000 250000 0  850000 250000 0  900000 250000 0  950000 250000 0  1000000 250000 0  0 300000 0  50000 300000 0  100000 300000 0  150000 300000 0  200000 300000 0  250000 300000 0  300000 300000 0  350000 300000 0  400000 300000 0  450000 300000 0  500000 300000 0  550000 300000 0  600000 300000 0  650000 300000 0  700000 300000 0  750000 300000 0  800000 300000 0  850000 300000 0  900000 300000 0  950000 300000 0  1000000 300000 0  0 350000 0  50000 350000 0  100000 350000 0  150000 350000 0  200000 350000 0  250000 350000 0  300000 350000 0  350000 350000 0  400000 350000 0  450000 350000 0  500000 350000 0  550000 350000 0  600000 350000 0  650000 350000 0  700000 350000 0  750000 350000 0  800000 350000 0  850000 350000 0  900000 350000 0  950000 350000 0  1000000 350000 0  0 400000 0  50000 400000 0  100000 400000 0  150000 400000 0  200000 400000 0  250000 400000 0  300000 400000 0  350000 400000 0  400000 400000 0  450000 400000 0  500000 400000 0  550000 400000 0  600000 400000 0  650000 400000 0  700000 400000 0  750000 400000 0  800000 400000 0  850000 400000 0  900000 400000 0  950000 400000 0  1000000 400000 0  0 450000 0  50000 450000 0  100000 450000 0  150000 450000 0  200000 450000 0  250000 450000 0  300000 450000 0  350000 450000 0  400000 450000 0  450000 450000 0  500000 450000 0  550000 450000 0  600000 450000 0  650000 450000 0  700000 450000 0  750000 450000 0  800000 450000 0  850000 450000 0  900000 450000 0  950000 450000 0  1000000 450000 0  0 500000 0  50000 500000 0  100000 500000 0  150000 500000 0  200000 500000 0  250000 500000 0  300000 500000 0  350000 500000 0  400000 500000 0  450000 500000 0  500000 500000 0  550000 500000 0  600000 500000 0  650000 500000 0  700000 500000 0  750000 500000 0  800000 500000 0  850000 500000 0  900000 500000 0  950000 500000 0  1000000 500000 0  0 550000 0  50000 550000 0  100000 550000 0  150000 550000 0  200000 550000 0  250000 550000 0  300000 550000 0  350000 550000 0  400000 550000 0  450000 550000 0  500000 550000 0  550000 550000 0  600000 550000 0  650000 550000 0  700000 550000 0  750000 550000 0  800000 550000 0  850000 550000 0  900000 550000 0  950000 550000 0  1000000 550000 0  0 600000 0  50000 600000 0  100000 600000 0  150000 600000 0  200000 600000 0  250000 600000 0  300000 600000 0  350000 600000 0  400000 600000 0  450000 600000 0  500000 600000 0  550000 600000 0  600000 600000 0  650000 600000 0  700000 600000 0  750000 600000 0  800000 600000 0  850000 600000 0  900000 600000 0  950000 600000 0  1000000 600000 0  0 650000 0  50000 650000 0  100000 650000 0  150000 650000 0  200000 650000 0  250000 650000 0  300000 650000 0  350000 650000 0  400000 650000 0  450000 650000 0  500000 650000 0  550000 650000 0  600000 650000 0  650000 650000 0  700000 650000 0  750000 650000 0  800000 650000 0  850000 650000 0  900000 650000 0  950000 650000 0  1000000 650000 0  0 700000 0  50000 700000 0  100000 700000 0  150000 700000 0  200000 700000 0  250000 700000 0  300000 700000 0  350000 700000 0  400000 700000 0  450000 700000 0  500000 700000 0  550000 700000 0  600000 700000 0  650000 700000 0  700000 700000 0  750000 700000 0  800000 700000 0  850000 700000 0  900000 700000 0  950000 700000 0  1000000 700000 0  0 750000 0  50000 750000 0  100000 750000 0  150000 750000 0  200000 750000 0  250000 750000 0  300000 750000 0  350000 750000 0  400000 750000 0  450000 750000 0  500000 750000 0  550000 750000 0  600000 750000 0  650000 750000 0  700000 750000 0  750000 750000 0  800000 750000 0  850000 750000 0  900000 750000 0  950000 750000 0  1000000 750000 0  0 800000 0  50000 800000 0  100000 800000 0  150000 800000 0  200000 800000 0  250000 800000 0  300000 800000 0  350000 800000 0  400000 800000 0  450000 800000 0  500000 800000 0  550000 800000 0  600000 800000 0  650000 800000 0  700000 800000 0  750000 800000 0  800000 800000 0  850000 800000 0  900000 800000 0  950000 800000 0  1000000 800000 0  0 850000 0  50000 850000 0  100000 850000 0  150000 850000 0  200000 850000 0  250000 850000 0  300000 850000 0  350000 850000 0  400000 850000 0  450000 850000 0  500000 850000 0  550000 850000 0  600000 850000 0  650000 850000 0  700000 850000 0  750000 850000 0  800000 850000 0  850000 850000 0  900000 850000 0  950000 850000 0  1000000 850000 0  0 900000 0  50000 900000 0  100000 900000 0  150000 900000 0  200000 900000 0  250000 900000 0  300000 900000 0  350000 900000 0  400000 900000 0  450000 900000 0  500000 900000 0  550000 900000 0  600000 900000 0  650000 900000 0  700000 900000 0  750000 900000 0  800000 900000 0  850000 900000 0  900000 900000 0  950000 900000 0  1000000 900000 0  0 950000 0  50000 950000 0  100000 950000 0  150000 950000 0  200000 950000 0  250000 950000 0  300000 950000 0  350000 950000 0  400000 950000 0  450000 950000 0  500000 950000 0  550000 950000 0  600000 950000 0  650000 950000 0  700000 950000 0  750000 950000 0  800000 950000 0  850000 950000 0  900000 950000 0  950000 950000 0  1000000 950000 0  0 1000000 0  50000 1000000 0  100000 1000000 0  150000 1000000 0  200000 1000000 0  250000 1000000 0  300000 1000000 0  350000 1000000 0  400000 1000000 0  450000 1000000 0  500000 1000000 0  550000 1000000 0  600000 1000000 0  650000 1000000 0  700000 1000000 0  750000 1000000 0  800000 1000000 0  850000 1000000 0  900000 1000000 0  950000 1000000 0  1000000 1000000 0  0 1050000 0  50000 1050000 0  100000 1050000 0  150000 1050000 0  200000 1050000 0  250000 1050000 0  300000 1050000 0  350000 1050000 0  400000 1050000 0  450000 1050000 0  500000 1050000 0  550000 1050000 0  600000 1050000 0  650000 1050000 0  700000 1050000 0  750000 1050000 0  800000 1050000 0  850000 1050000 0  900000 1050000 0  950000 1050000 0  1000000 1050000 0  0 1100000 0  50000 1100000 0  100000 1100000 0  150000 1100000 0  200000 1100000 0  250000 1100000 0  300000 1100000 0  350000 1100000 0  400000 1100000 0  450000 1100000 0  500000 1100000 0  550000 1100000 0  600000 1100000 0  650000 1100000 0  700000 1100000 0  750000 1100000 0  800000 1100000 0  850000 1100000 0  900000 1100000 0  950000 1100000 0  1000000 1100000 0  0 1150000 0  50000 1150000 0  100000 1150000 0  150000 1150000 0  200000 1150000 0  250000 1150000 0  300000 1150000 0  350000 1150000 0  400000 1150000 0  450000 1150000 0  500000 1150000 0  550000 1150000 0  600000 1150000 0  650000 1150000 0  700000 1150000 0  750000 1150000 0  800000 1150000 0  850000 1150000 0  900000 1150000 0  950000 1150000 0  1000000 1150000 0  0 1200000 0  50000 1200000 0  100000 1200000 0  150000 1200000 0  200000 1200000 0  250000 1200000 0  300000 1200000 0  350000 1200000 0  400000 1200000 0  450000 1200000 0  500000 1200000 0  550000 1200000 0  600000 1200000 0  650000 1200000 0  700000 1200000 0  750000 1200000 0  800000 1200000 0  850000 1200000 0  900000 1200000 0  950000 1200000 0  1000000 1200000 0  0 1250000 0  50000 1250000 0  100000 1250000 0  150000 1250000 0  200000 1250000 0  250000 1250000 0  300000 1250000 0  350000 1250000 0  400000 1250000 0  450000 1250000 0  500000 1250000 0  550000 1250000 0  600000 1250000 0  650000 1250000 0  700000 1250000 0  750000 1250000 0  800000 1250000 0  850000 1250000 0  900000 1250000 0  950000 1250000 0  1000000 1250000 0  0 1300000 0  50000 1300000 0  100000 1300000 0  150000 1300000 0  200000 1300000 0  250000 1300000 0  300000 1300000 0  350000 1300000 0  400000 1300000 0  450000 1300000 0  500000 1300000 0  550000 1300000 0  600000 1300000 0  650000 1300000 0  700000 1300000 0  750000 1300000 0  800000 1300000 0  850000 1300000 0  900000 1300000 0  950000 1300000 0  1000000 1300000 0  0 1350000 0  50000 1350000 0  100000 1350000 0  150000 1350000 0  200000 1350000 0  250000 1350000 0  300000 1350000 0  350000 1350000 0  400000 1350000 0  450000 1350000 0  500000 1350000 0  550000 1350000 0  600000 1350000 0  650000 1350000 0  700000 135
[...]
<PointData  Scalars="f_6001"> 
<DataArray  type="Float64"  Name="f_6001"  format="ascii">1.0553521607283664e-01  1.1259695928285240e-01  1.1517687575829033e-01  1.1638288199272125e-01  1.1727774197020339e-01  1.1801447121120281e-01  1.1864713315023222e-01  1.1921232452378548e-01  1.1973478801114021e-01  1.2023186639974190e-01  1.2071698475472029e-01  1.2120188093800162e-01  1.2169824857802325e-01  1.2221937425532640e-01  1.2278238629865429e-01  1.2341159384375153e-01  1.2413913193948310e-01  1.2498608008410675e-01  1.2601567313961456e-01  1.2879927650952841e-01  1.4302631820669751e-01  1.1327201610698727e-01  1.1420850428419015e-01  1.1533815221493497e-01  1.1645149622007647e-01  1.1733220193957895e-01  1.1805110383705429e-01  1.1867068338107570e-01  1.1922731030958482e-01  1.1974376351217796e-01  1.2023614582625855e-01  1.2071714516312959e-01  1.2119795656178814e-01  1.2168974493684273e-01  1.2220509753826514e-01  1.2275985579377416e-01  1.2337585637390658e-01  1.2408689865430755e-01  1.2496301207599840e-01  1.2620003337414415e-01  1.2810904918132676e-01  1.2850946103386252e-01  1.1528390560676741e-01  1.1541057605942756e-01  1.1609326103538625e-01  1.1684719607476449e-01  1.1755403276984817e-01  1.1818771024120812e-01  1.1875858900126796e-01  1.1928373208715214e-01  1.1977779759839584e-01  1.2025261959218346e-01  1.2071822802671273e-01  1.2118381368709165e-01  1.2165859156552604e-01  1.2215268160286405e-01  1.2267814876836858e-01  1.2325048032937207e-01  1.2389120684009217e-01  1.2463046203445693e-01  1.2548095919117350e-01  1.2624495273324390e-01  1.2601333831412012e-01  1.1633308405583442e-01  1.1641305481429016e-01  1.1680598983598736e-01  1.1731959924923421e-01  1.1786155688441037e-01  1.1838915392178787e-01  1.1889207390151593e-01  1.1937098061383804e-01  1.1983096342598831e-01  1.2027833083407834e-01  1.2071949308218587e-01  1.2116079195236998e-01  1.2160863646937148e-01  1.2206968706924141e-01  1.2255091142294136e-01  1.2305914698396707e-01  1.2359885117725471e-01  1.2416292397401063e-01  1.2470304075051757e-01  1.2507775688486963e-01  1.2509821149556122e-01  1.1710070404437357e-01  1.1716405505181605e-01  1.1741015724907929e-01  1.1777077287169541e-01  1.1818492965598283e-01  1.1861748588233027e-01  1.1905060263890434e-01  1.1947742980668632e-01  1.1989678877318372e-01  1.2031025507486832e-01  1.2072065168625468e-01  1.2113129251090385e-01  1.2154557123859956e-01  1.2196658667946481e-01  1.2239648657582286e-01  1.2283499552623708e-01  1.2327600444748843e-01  1.2370033040611762e-01  1.2406485840833477e-01  1.2430228477427918e-01  1.2436302881304531e-01  1.1769040404586181e-01  1.1773617538917437e-01  1.1790677245840304e-01  1.1817019290741490e-01  1.1849223374674252e-01  1.1884656064177174e-01  1.1921622986098274e-01  1.1959180676935430e-01  1.1996872430704990e-01  1.2034533850483173e-01  1.2072158907169703e-01  1.2109812159646659e-01  1.2147563803409395e-01  1.2185424654830432e-01  1.2223255536225605e-01  1.2260617813441603e-01  1.2296528447759363e-01  1.2329132237770046e-01  1.2355519981051277e-01  1.2372281522372434e-01  1.2376933496301636e-01  1.1815116462363351e-01  1.1818494433046620e-01  1.1831148912337208e-01  1.1851258530129596e-01  1.1876862251473516e-01  1.1906127442869141e-01  1.1937664775605901e-01  1.1970527721547447e-01  1.2004121136257632e-01  1.2038090275265098e-01  1.2072225966926776e-01  1.2106387762713168e-01  1.2140437531381583e-01  1.2174171607097409e-01  1.2207238105155829e-01  1.2239028485272367e-01  1.2268547658953111e-01  1.2294313466576197e-01  1.2314418297578765e-01  1.2326908014676674e-01  1.2330294183220092e-01  1.1851667202444742e-01  1.1854282510734993e-01  1.1864123439173979e-01  1.1880070213176548e-01  1.1900912013369742e-01  1.1925394276212552e-01  1.1952432268584023e-01  1.1981180351620054e-01  1.2011016437883863e-01  1.2041490869354579e-01  1.2072267224938074e-01  1.2103064606618125e-01  1.2133602121453807e-01  1.2163542026706983e-01  1.2192427864826436e-01  1.2219618735783162e-01  1.2244233837141222e-01  1.2265143877117159e-01  1.2281064815539539e-01  1.2290785573272489e-01  1.2293392509184911e-01  1.1880896027452850e-01  1.1883003773733948e-01  1.1890947677411165e-01  1.1903997042651088e-01  1.1921356213996137e-01  1.1942144533666718e-01  1.1965524219389706e-01  1.1990771401607948e-01  1.2017290725548681e-01  1.2044597920643900e-01  1.2072286957040335e-01  1.2099991383566838e-01  1.2127343691670997e-01  1.2153933927215621e-01  1.2179269027620150e-01  1.2202737951872680e-01  1.2223594640059784e-01  1.2240978593565016e-01  1.2253993355761879e-01  1.2261845272932154e-01  1.2263944087237376e-01  1.1904260428943900e-01  1.1906014795160311e-01  1.1912631995340570e-01  1.1923605482460492e-01  1.1938383626447621e-01  1.1956323571263731e-01  1.1976769543829535e-01  1.1999107735977024e-01  1.2022789203236273e-01  1.2047328961612500e-01  1.2072290489266493e-01  1.2097262518084051e-01  1.2121832494318573e-01  1.2145559746538750e-01  1.2167951650314331e-01  1.2188447952431720e-01  1.2206421194205801e-01  1.2221202731301224e-01  1.2232140840663333e-01  1.2238687054456029e-01  1.2240433462266478e-01  1.1922762620308000e-01  1.1924264735670564e-01  1.1929933161053985e-01  1.1939396004753269e-01  1.1952249964914324e-01  1.1968004976225774e-01  1.1986133667736806e-01  1.2006111086965704e-01  1.2027436914453854e-01  1.2049641866540931e-01  1.2072282718651599e-01  1.2094930348671519e-01  1.2117154509842544e-01  1.2138508551266869e-01  1.2158517447954412e-01  1.2176673205478082e-01  1.2192442372835716e-01  1.2205289884970059e-01  1.2214720654222826e-01  1.2220334476094630e-01  1.2221829751989964e-01  1.1937111287375506e-01  1.1938432278430357e-01  1.1943418361179801e-01  1.1951781566462821e-01  1.1963210563283350e-01  1.1977314156735211e-01  1.1993653565467792e-01  1.2011771160052655e-01  1.2031209564800276e-01  1.2051520828087033e-01  1.2072267515788768e-01  1.2093018368390306e-01  1.2113341277753456e-01  1.2132796302516358e-01  1.2150931500192225e-01  1.2167284459079539e-01  1.2181392225770706e-01  1.2192811345201503e-01  1.2201147732459036e-01  1.2206092654901431e-01  1.2207408073689055e-01  1.1947811771544806e-01  1.1949004912877872e-01  1.1953508509888355e-01  1.1961088045522472e-01  1.1971489459180505e-01  1.1984385063245576e-01  1.1999395681064355e-01  1.2016112068066377e-01  1.2034110985304203e-01  1.2052965143698725e-01  1.2072247671077271e-01  1.2091532626352565e-01  1.2110393488862467e-01  1.2128401702866926e-01  1.2145127375134476e-01  1.2160144083798889e-01  1.2173039307410245e-01  1.2183431058454405e-01  1.2190989988069748e-01  1.2195464009009477e-01  1.2196652936973842e-01  1.1955218657881003e-01  1.1956326430480818e-01  1.1960507113660936e-01  1.1967560108607216e-01  1.1977266020483530e-01  1.1989336361589395e-01  1.2003429963246587e-01  1.2019169870023949e-01  1.2036157192241599e-01  1.2053981098564581e-01  1.2072225080205590e-01  1.2090470367048289e-01  1.2108297835904129e-01  1.2125289961662195e-01  1.2141034365025767e-01  1.2155130296426234e-01  1.2167198915131441e-01  1.2176897459903398e-01  1.2183936535025533e-01  1.2188098062535527e-01  1.2189203018050973e-01  1.1959567147134983e-01  1.1960625651712284e-01  1.1964619127093999e-01  1.1971367327852273e-01  1.1980669582024403e-01  1.1992258675773210e-01  1.2005814465875511e-01  1.2020978358489176e-01  1.2037365872035469e-01  1.2054576528456805e-01  1.2072200993686416e-01  1.2089826021554091e-01  1.2107038200142815e-01  1.2123427720385641e-01  1.2138593386137474e-01  1.2152149860241020e-01  1.2163737688656176e-01  1.2173036007789677e-01  1.2179777202814532e-01  1.2183761259023174e-01  1.2184818353983942e-01  1.1960991409009233e-01  1.1962033372839972e-01  1.1965962662957416e-01  1.1972608905297574e-01  1.1981777548819976e-01  1.1993208010335160e-01  1.2006586669394310e-01  1.2021560642445386e-01  1.2037749967382300e-01  1.2054757481955580e-01  1.2072176256218696e-01  1.2089595030481809e-01  1.2106602545055092e-01  1.2122791869992004e-01  1.2137765843043075e-01  1.2151144502102226e-01  1.2162574963617412e-01  1.2171743607139812e-01  1.2178389849479969e-01  1.2182319139597410e-01  1.2183361103428147e-01  1.1959534158453441e-01  1.1960591253414210e-01  1.1964575309622855e-01  1.1971316504647711e-01  1.1980614823781213e-01  1.1992202652196367e-01  1.2005759126299917e-01  1.2020924792051753e-01  1.2037314312294575e-01  1.2054526490883302e-01  1.2072151518750977e-01  1.2089775983980587e-01  1.2106986640401922e-01  1.2123374153948209e-01  1.2138538046561874e-01  1.2152093836664175e-01  1.2163682930412985e-01  1.2172985184585113e-01  1.2179733385343387e-01  1.2183726860725098e-01  1.2184785365302400e-01  1.1955149494386412e-01  1.1956254449901862e-01  1.1960415977411859e-01  1.1967455052533996e-01  1.1977153597305949e-01  1.1989222216011156e-01  1.2003318147411626e-01  1.2019062550775199e-01  1.2036054676533267e-01  1.2053882145389110e-01  1.2072127432231808e-01  1.2090371413872816e-01  1.2108195320195793e-01  1.2125182642413440e-01  1.2140922549190804e-01  1.2155016150847997e-01  1.2167086491953863e-01  1.2176792403830176e-01  1.2183845398776458e-01  1.2188026081956572e-01  1.2189133854556385e-01  1.1947699575463559e-01  1.1948888503427926e-01  1.1953362524367654e-01  1.1960921453982998e-01  1.1971313205027156e-01  1.1984208428638515e-01  1.1999225137302930e-01  1.2015950809570478e-01  1.2033959023574936e-01  1.2052819886084842e-01  1.2072104841360133e-01  1.2091387368738678e-01  1.2110241527133199e-01  1.2128240444371019e-01  1.2144956831373044e-01  1.2159967449191821e-01  1.2172863053256897e-01  1.2183264466914928e-01  1.2190844002549042e-01  1.2195347599559524e-01  1.2196540740892590e-01  1.1936944438748362e-01  1.1938259857535985e-01  1.1943204779978378e-01  1.1951541167235913e-01  1.1962960286666710e-01  1.1977068053357877e-01  1.1993421012245194e-01  1.2011556209921058e-01  1.2031011234683961e-01  1.2051334144047110e-01  1.2072084996648644e-01  1.2092831684350380e-01  1.2113142947637137e-01  1.2132581352384753e-01  1.2150698946969618e-01  1.2167038355702194e-01  1.2181141949154059e-01  1.2192570945974585e-01  1.2200934151257606e-01  1.2205920234007048e-01  1.2207241225061899e-01  1.1922522760447474e-01  1.1924018036342807e-01  1.1929631858214611e-01  1.1939062627467373e-01  1.1951910139601718e-01  1.1967679306959350e-01  1.1985835064483022e-01  1.2005843961170566e-01  1.2027198002594888e-01  1.2049422163765910e-01  1.2072069793785831e-01  1.2094710645896495e-01  1.2116915597983570e-01  1.2138241425471720e-01  1.2158218844700616e-01  1.2176347536211647e-01  1.2192102547523100e-01  1.2204956507684150e-01  1.2214419351383432e-01  1.2220087776766851e-01  1.2221589892129417e-01  1.1903919050170980e-01  1.1905665457981431e-01  1.1912211671774127e-01  1.1923149781136233e-01  1.1937931318231650e-01  1.1955904560005726e-01  1.1976400862123118e-01  1.1998792765898697e-01  1.2022520018118876e-01  1.2047089994353398e-01  1.2072062023170951e-01  1.2097023550824944e-01  1.2121563309201169e-01  1.2145244776460418e-01  1.2167582968607907e-01  1.2188028941173706e-01  1.2205968885989814e-01  1.2220747029976940e-01  1.2231720517096860e-01  1.2238337717277116e-01  1.2240092083493531e-01  1.1880408425200109e-01  1.1882507239505330e-01  1.1890359156675606e-01  1.1903373918872462e-01  1.1920757872377688e-01  1.1941614560564791e-01  1.1965083484817318e-01  1.1990418585221847e-01  1.2017008820766471e-01  1.2044361128870630e-01  1.2072065555397131e-01  1.2099754591793566e-01  1.2127061786888785e-01  1.2153581110829513e-01  1.2178828293047751e-01  1.2202207978770735e-01  1.2222996298441313e-01  1.2240355469786360e-01  1.2253404835026278e-01  1.2261348738703493e-01  1.2263456484984592e-01  1.1850960003252604e-01  1.1853566939165025e-01  1.1863287696897971e-01  1.1879208635320344e-01  1.1900118675296278e-01  1.1924733776654332e-01  1.1951924647611054e-01  1.1980810485730503e-01  1.2010750390983681e-01  1.2041287905819363e-01  1.2072085287499411e-01  1.2102861643082904e-01  1.2133336074553622e-01  1.2163172160817427e-01  1.2191920243853453e-01  1.2218958236224918e-01  1.2243440499067726e-01  1.2264282299260920e-01  1.2280229073263482e-01  1.2290070001702469e-01  1.2292685309992717e-01  1.1814058329217461e-01  1.1817444497760873e-01  1.1829934214858775e-01  1.1850039045861337e-01  1.1875804853484417e-01  1.1905324027165154e-01  1.1937114407281686e-01  1.1970180905340105e-01  1.2003914981055931e-01  1.2037964749724346e-01  1.2072126545510731e-01  1.2106262237172408e-01  1.2140231376179871e-01  1.2173824790890053e-01  1.2206687736831594e-01  1.2238225069568347e-01  1.2267490260963972e-01  1.2293093982307889e-01  1.2313203600100274e-01  1.2325858079390861e-01  1.2329236050074129e-01  1.1767419016135966e-01  1.1772070990065160e-01  1.1788832531386303e-01  1.1815220274667521e-01  1.1847824064678192e-01  1.1883734698995944e-01  1.1921096976211933e-01  1.1958927857607110e-01  1.1996788709028144e-01  1.2034540352790879e-01  1.2072193605267831e-01  1.2109818661954361e-01  1.2147480081732542e-01  1.2185171835502093e-01  1.2222729526339242e-01  1.2259696448260338e-01  1.2295129137763255e-01  1.2327333221696010e-01  1.2353675266597194e-01  1.2370734973520060e-01  1.2375312107851315e-01  1.1708049631133138e-01  1.1714124035009731e-01  1.1737866671604137e-01  1.1774319471825828e-01  1.1816752067688738e-01  1.1860852959813864e-01  1.1904703854855285e-01  1.1947693844491090e-01  1.1989795388577611e-01  1.2031223261347178e-01  1.2072287343812092e-01  1.2113327004950727e-01  1.2154673635119181e-01  1.2196609531768911e-01  1.2239292248547103e-01  1.2282603924204508e-01  1.2325859546839241e-01  1.2367275225267978e-01  1.2403336787529587e-01  1.2427947007255913e-01  1.2434282108000162e-01  1.1634531362881685e-01  1.1636576823950751e-01  1.1674048437385882e-01  1.1728060115036548e-01  1.1784467394712134e-01  1.1838437814040895e-01  1.1889261370143461e-01  1.1937383805513456e-01  1.1983488865500447e-01  1.2028273317200591e-01  1.2072403204218998e-01  1.2116519429029750e-01  1.2161256169838747e-01  1.2207254451053766e-01  1.2255145122285971e-01  1.2305437120258764e-01  1.2358196823996505e-01  1.2412392587514111e-01  1.2463753528838797e-01  1.2503047031008530e-01  1.2511044106854100e-01  1.1543018681026049e-01  1.1519857239113393e-01  1.1596256593320259e-01  1.1681306308991915e-01  1.1755231828428411e-01  1.1819304479500424e-01  1.1876537635600772e-01  1.1929084352151223e-01  1.1978493355885017e-01  1.2025971143728451e-01  1.2072529709766340e-01  1.2119090553219261e-01  1.2166572752598021e-01  1.2215979303722381e-01  1.2268493612310792e-01  1.2325581488316759e-01  1.2388949235452740e-01  1.2459632904961089e-01  1.2535026408898917e-01  1.2603294906494814e-01  1.2615961951760826e-01  1.1293406409051712e-01  1.1333447594305263e-01  1.1524349175023044e-01  1.1648051304837770e-01  1.1735662647006913e-01  1.1806766875047013e-01  1.1868366933060247e-01  1.1923842758611147e-01  1.1975378018753378e-01  1.2024556856258832e-01  1.2072637996124681e-01  1.2120737929811778e-01  1.2169976161219835e-01  1.2221621481479142e-01  1.2277284174330043e-01  1.2339242128732168e-01  1.2411132318479683e-01  1.2499202890429922e-01  1.2610537290944066e-01  1.2723502084018229e-01  1.2817150901738997e-01  9.8417206917769534e-02  1.1264424861480427e-01  1.1542785198475641e-01  1.1645744504027097e-01  1.1730439318489419e-01  1.1803193128062536e-01  1.1866113882572250e-01  1.1922415086905030e-01  1.1974527654635345e-01  1.2024164418637499e-01  1.2072654036965628e-01  1.2121165872463456e-01  1.2170873711323622e-01  1.2223120060059088e-01  1.2279639197414408e-01  1.2342905391317334e-01  1.2416578315417254e-01  1.2506064313165413e-01  1.2626664936608240e-01  1.2884656584151402e-01  1.3590830905156234e-01  </DataArray> 
</PointData> 
</Piece>
</UnstructuredGrid>
</VTKFile>