<?xml version="1.0"?>
<VTKFile type="UnstructuredGrid"  version="0.1"  >
<UnstructuredGrid>
<Piece  NumberOfPoints="651" NumberOfCells="1200">
<Points>
<DataArray  type="Float64"  NumberOfComponents="3"  format="ascii">0 0 0  50000 0 0  100000 0 0  150000 0 0  200000 0 0  250000 0 0  300000 0 0  350000 0 0  400000 0 0  450000 0 0  500000 0 0  550000 0 0  600000 0 0  650000 0 0  700000 0 0  750000 0 0  800000 0 0  850000 0 0  900000 0 0  950000 0 0  1000000 0 0  0 50000 0  50000 50000 0  100000 50000 0  150000 50000 0  200000 50000 0  250000 50000 0  300000 50000 0  350000 50000 0  400000 50000 0  450000 50000 0  500000 50000 0  550000 50000 0  600000 50000 0  650000 50000 0  700000 50000 0  750000 50000 0  800000 50000 0  850000 50000 0  900000 50000 0  950000 50000 0  1000000 50000 0  0 100000 0  50000 100000 0  100000 100000 0  150000 100000 0  200000 100000 0  250000 100000 0  300000 100000 0  350000 100000 0  400000 100000 0  450000 100000 0  500000 100000 0  550000 100000 0  600000 100000 0  650000 100000 0  700000 100000 0  750000 100000 0  800000 100000 0  850000 100000 0  900000 100000 0  950000 100000 0  1000000 100000 0  0 150000 0  50000 150000 0  100000 150000 0  150000 150000 0  200000 150000 0  250000 150000 0  300000 150000 0  350000 150000 0  400000 150000 0  450000 150000 0  500000 150000 0  550000 150000 0  600000 150000 0  650000 150000 0  700000 150000 0  750000 150000 0  800000 150000 0  850000 150000 0  900000 150000 0  950000 150000 0  1000000 150000 0  0 200000 0  50000 200000 0  100000 200000 0  150000 200000 0  200000 200000 0  250000 200000 0  300000 200000 0  350000 200000 0  400000 200000 0  450000 200000 0  500000 200000 0  550000 200000 0  600000 200000 0  650000 200000 0  700000 200000 0  750000 200000 0  800000 200000 0  850000 200000 0  900000 200000 0  950000 200000 0  1000000 200000 0  0 250000 0  50000 250000 0  100000 250000 0  150000 250000 0  200000 250000 0  250000 250000 0  300000 250000 0  350000 250000 0  400000 250000 0  450000 250000 0  500000 250000 0  550000 250000 0  600000 250000 0  650000 250000 0  700000 250000 0  750000 250000 0  800000 250000 0  850000 250000 0  900000 250000 0  950000 250000 0  1000000 250000 0  0 300000 0  50000 300000 0  100000 300000 0  150000 300000 0  200000 300000 0  250000 300000 0  300000 300000 0  350000 300000 0  400000 300000 0  450000 300000 0  500000 300000 0  550000 300000 0  600000 300000 0  650000 300000 0  700000 300000 0  750000 300000 0  800000 300000 0  850000 300000 0  900000 300000 0  950000 300000 0  1000000 300000 0  0 350000 0  50000 350000 0  100000 350000 0  150000 350000 0  200000 350000 0  250000 350000 0  300000 350000 0  350000 350000 0  400000 350000 0  450000 350000 0  500000 350000 0  550000 350000 0  600000 350000 0  650000 350000 0  700000 350000 0  750000 350000 0  800000 350000 0  850000 350000 0  900000 350000 0  950000 350000 0  1000000 350000 0  0 400000 0  50000 400000 0  100000 400000 0  150000 400000 0  200000 400000 0  250000 400000 0  300000 400000 0  350000 400000 0  400000 400000 0  450000 400000 0  500000 400000 0  550000 400000 0  600000 400000 0  650000 400000 0  700000 400000 0  750000 400000 0  800000 400000 0  850000 400000 0  900000 400000 0  950000 400000 0  1000000 400000 0  0 450000 0  50000 450000 0  100000 450000 0  150000 450000 0  200000 450000 0  250000 450000 0  300000 450000 0  350000 450000 0  400000 450000 0  450000 450000 0  500000 450000 0  550000 450000 0  600000 450000 0  650000 450000 0  700000 450000 0  750000 450000 0  800000 450000 0  850000 450000 0  900000 450000 0  950000 450000 0  1000000 450000 0  0 500000 0  50000 500000 0  100000 500000 0  150000 500000 0  200000 500000 0  250000 500000 0  300000 500000 0  350000 500000 0  400000 500000 0  450000 500000 0  500000 500000 0  550000 500000 0  600000 500000 0  650000 500000 0  700000 500000 0  750000 500000 0  800000 500000 0  850000 500000 0  900000 500000 0  950000 500000 0  1000000 500000 0  0 550000 0  50000 550000 0  100000 550000 0  150000 550000 0  200000 550000 0  250000 550000 0  300000 550000 0  350000 550000 0  400000 550000 0  450000 550000 0  500000 550000 0  550000 550000 0  600000 550000 0  650000 550000 0  700000 550000 0  750000 550000 0  800000 550000 0  850000 550000 0  900000 550000 0  950000 550000 0  1000000 550000 0  0 600000 0  50000 600000 0  100000 600000 0  150000 600000 0  200000 600000 0  250000 600000 0  300000 600000 0  350000 600000 0  400000 600000 0  450000 600000 0  500000 600000 0  550000 600000 0  600000 600000 0  650000 600000 0  700000 600000 0  750000 600000 0  800000 600000 0  850000 600000 0  900000 600000 0  950000 600000 0  1000000 600000 0  0 650000 0  50000 650000 0  100000 650000 0  150000 650000 0  200000 650000 0  250000 650000 0  300000 650000 0  350000 650000 0  400000 650000 0  450000 650000 0  500000 650000 0  550000 650000 0  600000 650000 0  650000 650000 0  700000 650000 0  750000 650000 0  800000 650000 0  850000 650000 0  900000 650000 0  950000 650000 0  1000000 650000 0  0 700000 0  50000 700000 0  100000 700000 0  150000 700000 0  200000 700000 0  250000 700000 0  300000 700000 0  350000 700000 0  400000 700000 0  450000 700000 0  500000 700000 0  550000 700000 0  600000 700000 0  650000 700000 0  700000 700000 0  750000 700000 0  800000 700000 0  850000 700000 0  900000 700000 0  950000 700000 0  1000000 700000 0  0 750000 0  50000 750000 0  100000 750000 0  150000 750000 0  200000 750000 0  250000 750000 0  300000 750000 0  350000 750000 0  400000 750000 0  450000 750000 0  500000 750000 0  550000 750000 0  600000 750000 0  650000 750000 0  700000 750000 0  750000 750000 0  800000 750000 0  850000 750000 0  900000 750000 0  950000 750000 0  1000000 750000 0  0 800000 0  50000 800000 0  100000 800000 0  150000 800000 0  200000 800000 0  250000 800000 0  300000 800000 0  350000 800000 0  400000 800000 0  450000 800000 0  500000 800000 0  550000 800000 0  600000 800000 0  650000 800000 0  700000 800000 0  750000 800000 0  800000 800000 0  850000 800000 0  900000 800000 0  950000 800000 0  1000000 800000 0  0 850000 0  50000 850000 0  100000 850000 0  150000 850000 0  200000 850000 0  250000 850000 0  300000 850000 0  350000 850000 0  400000 850000 0  450000 850000 0  500000 850000 0  550000 850000 0  600000 850000 0  650000 850000 0  700000 850000 0  750000 850000 0  800000 850000 0  850000 850000 0  900000 850000 0  950000 850000 0  1000000 850000 0  0 900000 0  50000 900000 0  100000 900000 0  150000 900000 0  200000 900000 0  250000 900000 0  300000 900000 0  350000 900000 0  400000 900000 0  450000 900000 0  500000 900000 0  550000 900000 0  600000 900000 0  650000 900000 0  700000 900000 0  750000 900000 0  800000 900000 0  850000 900000 0  900000 900000 0  950000 900000 0  1000000 900000 0  0 950000 0  50000 950000 0  100000 950000 0  150000 950000 0  200000 950000 0  250000 950000 0  300000 950000 0  350000 950000 0  400000 950000 0  450000 950000 0  500000 950000 0  550000 950000 0  600000 950000 0  650000 950000 0  700000 950000 0  750000 950000 0  800000 950000 0  850000 950000 0  900000 950000 0  950000 950000 0  1000000 950000 0  0 1000000 0  50000 1000000 0  100000 1000000 0  150000 1000000 0  200000 1000000 0  250000 1000000 0  300000 1000000 0  350000 1000000 0  400000 1000000 0  450000 1000000 0  500000 1000000 0  550000 1000000 0  600000 1000000 0  650000 1000000 0  700000 1000000 0  750000 1000000 0  800000 1000000 0  850000 1000000 0  900000 1000000 0  950000 1000000 0  1000000 1000000 0  0 1050000 0  50000 1050000 0  100000 1050000 0  150000 1050000 0  200000 1050000 0  250000 1050000 0  300000 1050000 0  350000 1050000 0  400000 1050000 0  450000 1050000 0  500000 1050000 0  550000 1050000 0  600000 1050000 0  650000 1050000 0  700000 1050000 0  750000 1050000 0  800000 1050000 0  850000 1050000 0  900000 1050000 0  950000 1050000 0  1000000 1050000 0  0 1100000 0  50000 1100000 0  100000 1100000 0  150000 1100000 0  200000 1100000 0  250000 1100000 0  300000 1100000 0  350000 1100000 0  400000 1100000 0  450000 1100000 0  500000 1100000 0  550000 1100000 0  600000 1100000 0  650000 1100000 0  700000 1100000 0  750000 1100000 0  800000 1100000 0  850000 1100000 0  900000 1100000 0  950000 1100000 0  1000000 1100000 0  0 1150000 0  50000 1150000 0  100000 1150000 0  150000 1150000 0  200000 1150000 0  250000 1150000 0  300000 1150000 0  350000 1150000 0  400000 1150000 0  450000 1150000 0  500000 1150000 0  550000 1150000 0  600000 1150000 0  650000 1150000 0  700000 1150000 0  750000 1150000 0  800000 1150000 0  850000 1150000 0  900000 1150000 0  950000 1150000 0  1000000 1150000 0  0 1200000 0  50000 1200000 0  100000 1200000 0  150000 1200000 0  200000 1200000 0  250000 1200000 0  300000 1200000 0  350000 1200000 0  400000 1200000 0  450000 1200000 0  500000 1200000 0  550000 1200000 0  600000 1200000 0  650000 1200000 0  700000 1200000 0  750000 1200000 0  800000 1200000 0  850000 1200000 0  900000 1200000 0  950000 1200000 0  1000000 1200000 0  0 1250000 0  50000 1250000 0  100000 1250000 0  150000 1250000 0  200000 1250000 0  250000 1250000 0  300000 1250000 0  350000 1250000 0  400000 1250000 0  450000 1250000 0  500000 1250000 0  550000 1250000 0  600000 1250000 0  650000 1250000 0  700000 1250000 0  750000 1250000 0  800000 1250000 0  850000 1250000 0  900000 1250000 0  950000 1250000 0  1000000 1250000 0  0 1300000 0  50000 1300000 0  100000 1300000 0  150000 1300000 0  200000 1300000 0  250000 1300000 0  300000 1300000 0  350000 1300000 0  400000 1300000 0  450000 1300000 0  500000 1300000 0  550000 1300000 0  600000 1300000 0  650000 1300000 0  700000 1300000 0  750000 1300000 0  800000 1300000 0  850000 1300000 0  900000 1300000 0  950000 1300000 0  1000000 1300000 0  0 1350000 0  50000 1350000 0  100000 1350000 0  150000 1350000 0  200000 1350000 0  250000 1350000 0  300000 1350000 0  350000 1350000 0  400000 1350000 0  450000 1350000 0  500000 1350000 0  550000 1350000 0  600000 1350000 0  650000 1350000 0  700000 135
[...]
<PointData  Scalars="f_6001"> 
<DataArray  type="Float64"  Name="f_6001"  format="ascii">1.0575137133148216e-01  1.1283948455173810e-01  1.1548089874139628e-01  1.1671418016199436e-01  1.1762325058293893e-01  1.1837141093161466e-01  1.1901444169063857e-01  1.1958907058788502e-01  1.2012026731981933e-01  1.2062564709144782e-01  1.2111886510685239e-01  1.2161185797063345e-01  1.2211652083002233e-01  1.2264637406644566e-01  1.2321875959519903e-01  1.2385787241867645e-01  1.2459589780088241e-01  1.2546274032762855e-01  1.2655747019437685e-01  1.2940073763621304e-01  1.4282140274589325e-01  1.1354279628367814e-01  1.1449855173532927e-01  1.1565350713642045e-01  1.1678320186394034e-01  1.1767774886555876e-01  1.1840856745986821e-01  1.1903849135937158e-01  1.1960439826245572e-01  1.2012946226114790e-01  1.2063005854450304e-01  1.2111908407429627e-01  1.2160791868512878e-01  1.2210791092886822e-01  1.2263184626838822e-01  1.2319580623349036e-01  1.2382209125365615e-01  1.2454582929417604e-01  1.2543884170184313e-01  1.2668852378800871e-01  1.2857612803642540e-01  1.2909975954592795e-01  1.1559435616964286e-01  1.1572784356224505e-01  1.1641988734848271e-01  1.1718494951503647e-01  1.1790324537395590e-01  1.1854749727750057e-01  1.1912791561576500e-01  1.1966181804597421e-01  1.2016412022037408e-01  1.2064685880602816e-01  1.2112023072643738e-01  1.2159357807588898e-01  1.2207626662244103e-01  1.2257858317314488e-01  1.2311280916415154e-01  1.2369475180392289e-01  1.2434623143802027e-01  1.2509662489545928e-01  1.2595621548530991e-01  1.2673426092750326e-01  1.2655239231742885e-01  1.1666448346429362e-01  1.1674492973092004e-01  1.1714338076543698e-01  1.1766517336404932e-01  1.1821604637631182e-01  1.1875237232144739e-01  1.1926364344099079e-01  1.1975052072333091e-01  1.2021816576330396e-01  1.2067298734917090e-01  1.2112150053916385e-01  1.2157015115160559e-01  1.2202545348084134e-01  1.2249417872395489e-01  1.2298341059151922e-01  1.2350007185070759e-01  1.2404853882166093e-01  1.2462136894290811e-01  1.2517042232759001e-01  1.2555538368677785e-01  1.2557547076610645e-01  1.1744370158004516e-01  1.1750737321665659e-01  1.1775733705604223e-01  1.1812386216635640e-01  1.1854484202075864e-01  1.1898454641424683e-01  1.1942483999992556e-01  1.1985875645400446e-01  1.2028509199240187e-01  1.2070544209757826e-01  1.2112267297338887e-01  1.2154015146837810e-01  1.2196132591915360e-01  1.2238934392061246e-01  1.2282638054297743e-01  1.2327213221567322e-01  1.2372036563199201e-01  1.2415170118765306e-01  1.2452273449483811e-01  1.2476469254847738e-01  1.2482319727587850e-01  1.1804231378540392e-01  1.1808876030913015e-01  1.1826213173648001e-01  1.1852989411455662e-01  1.1885725468703995e-01  1.1921744257072309e-01  1.1959323804838480e-01  1.1997505091368546e-01  1.2035823499032566e-01  1.2074111575969687e-01  1.2112362918845530e-01  1.2150642937137812e-01  1.2189022780806105e-01  1.2227513148833168e-01  1.2265972075962769e-01  1.2303953357664327e-01  1.2340459505071902e-01  1.2373610843307410e-01  1.2400450869861475e-01  1.2417480194757527e-01  1.2422157512462394e-01  1.1851048709643230e-01  1.1854488874048212e-01  1.1867351882016587e-01  1.1887794020432060e-01  1.1913821933414309e-01  1.1943572239596294e-01  1.1975632871373738e-01  1.2009041676046267e-01  1.2043193598787376e-01  1.2077727868515999e-01  1.2112431671013045e-01  1.2147162061765757e-01  1.2181778454091699e-01  1.2216073640105767e-01  1.2249689823025470e-01  1.2282008712912672e-01  1.2312019883058245e-01  1.2338217573480831e-01  1.2358659637795177e-01  1.2371355020358471e-01  1.2374809247443160e-01  1.1888201170741591e-01  1.1890864579434064e-01  1.1900869658347674e-01  1.1917081380731950e-01  1.1938269447685235e-01  1.1963158451000039e-01  1.1990645727560426e-01  1.2019871715853975e-01  1.2050204049509922e-01  1.2081185570798658e-01  1.2112474194089870e-01  1.2143784262469089e-01  1.2174830131636236e-01  1.2205268404641617e-01  1.2234635113278394e-01  1.2262278989998696e-01  1.2287304987335490e-01  1.2308565008270941e-01  1.2324753085153171e-01  1.2334639242413994e-01  1.2337298572100303e-01  1.1917912629720595e-01  1.1920058477457830e-01  1.1928136119413826e-01  1.1941403393252956e-01  1.1959051764939206e-01  1.1980186135369258e-01  1.2003954873713243e-01  1.2029622183869924e-01  1.2056582883465815e-01  1.2084344674152535e-01  1.2112494760448053e-01  1.2140660567408781e-01  1.2168468453225773e-01  1.2195501661682362e-01  1.2221259013677641e-01  1.2245119456604799e-01  1.2266324657257913e-01  1.2283999841314219e-01  1.2297233846790961e-01  1.2305220468383313e-01  1.2307358714551797e-01  1.1941662951711225e-01  1.1943449068715183e-01  1.1950178344931470e-01  1.1961335844907399e-01  1.1976360823443062e-01  1.1994599939446710e-01  1.2015386616002337e-01  1.2038096920567047e-01  1.2062172846177631e-01  1.2087121383648171e-01  1.2112498768450039e-01  1.2137886898669543e-01  1.2162866370330047e-01  1.2186989215254647e-01  1.2209754678227679e-01  1.2230593270635591e-01  1.2248867177066355e-01  1.2263896725449562e-01  1.2275019552719729e-01  1.2281678158138058e-01  1.2283456855517992e-01  1.1960471046590665e-01  1.1962000554446001e-01  1.1967765391032799e-01  1.1977387420064742e-01  1.1990456561019748e-01  1.2006474742418771e-01  1.2024905917031044e-01  1.2045216470381262e-01  1.2066897819218651e-01  1.2089472918188511e-01  1.2112491201767786e-01  1.2135516434701168e-01  1.2158111240297544e-01  1.2179821574433804e-01  1.2200164559131269e-01  1.2218623806758026e-01  1.2234657054666530e-01  1.2247720416246392e-01  1.2257310676091757e-01  1.2263020924480754e-01  1.2264543944894053e-01  1.1975057201219086e-01  1.1976402444143575e-01  1.1981473605898638e-01  1.1989977838107377e-01  1.2001598524435077e-01  1.2015938052062088e-01  1.2032550414634642e-01  1.2050970427874892e-01  1.2070733157402634e-01  1.2091383242610494e-01  1.2112476008869119e-01  1.2133573055078958e-01  1.2154235117590423e-01  1.2174014972758648e-01  1.2192453200722715e-01  1.2209079741584668e-01  1.2223423987280019e-01  1.2235035157369448e-01  1.2243512668521016e-01  1.2248542586441656e-01  1.2249882504722569e-01  1.1985934922814798e-01  1.1987150076582992e-01  1.1991730714809209e-01  1.1999438301356241e-01  1.2010014438110973e-01  1.2023126040156944e-01  1.2038387675361399e-01  1.2055383336905280e-01  1.2073682787133561e-01  1.2092851668003203e-01  1.2112456042505880e-01  1.2132062918296846e-01  1.2151238713384049e-01  1.2169547777625743e-01  1.2186553102098954e-01  1.2201821206990709e-01  1.2214932742620926e-01  1.2225499399642523e-01  1.2233186384878919e-01  1.2237737346606084e-01  1.2238948450302975e-01  1.1993464521786731e-01  1.1994592806408455e-01  1.1998845148678797e-01  1.2006017468586662e-01  1.2015886614278881e-01  1.2028159332533589e-01  1.2042488815037275e-01  1.2058491870841349e-01  1.2075763010085865e-01  1.2093884602520101e-01  1.2112433245421540e-01  1.2130983236437863e-01  1.2149108513798958e-01  1.2166384640027442e-01  1.2182392408237565e-01  1.2196724432631049e-01  1.2208995596749675e-01  1.2218857460027149e-01  1.2226015836145970e-01  1.2230248941438199e-01  1.2231374506524180e-01  1.1997885003734776e-01  1.1998963162959979e-01  1.2003025191530602e-01  1.2009887676619770e-01  1.2019346507176805e-01  1.2031130047000821e-01  1.2044912852478395e-01  1.2060330392256823e-01  1.2076991819469488e-01  1.2094490026463105e-01  1.2112408903039751e-01  1.2130328361948307e-01  1.2147828147157815e-01  1.2164491664698612e-01  1.2179911075255762e-01  1.2193694659333815e-01  1.2205477006377502e-01  1.2214931933959636e-01  1.2221787394071661e-01  1.2225839958997418e-01  1.2226916754038725e-01  1.1999332706175081e-01  1.2000394058783856e-01  1.2004390872131794e-01  1.2011149742346705e-01  1.2020472788528279e-01  1.2032095110949373e-01  1.2045697891803799e-01  1.2060922400915723e-01  1.2077382383437639e-01  1.2094674101084882e-01  1.2112383886877956e-01  1.2130093672671030e-01  1.2147385390318270e-01  1.2163845372840186e-01  1.2179069881952105e-01  1.2192672662806536e-01  1.2204294985227632e-01  1.2213618031409201e-01  1.2220376901624110e-01  1.2224373714972045e-01  1.2225435067580820e-01  1.1997851019717180e-01  1.1998927814758487e-01  1.2002980379684244e-01  1.2009835839796271e-01  1.2019290767378409e-01  1.2031073114422099e-01  1.2044856698500150e-01  1.2060276109057298e-01  1.2076939626598091e-01  1.2094439411807603e-01  1.2112358870716163e-01  1.2130277747292810e-01  1.2147775954286424e-01  1.2164437381499084e-01  1.2179854921277508e-01  1.2193637726755086e-01  1.2205421266579106e-01  1.2214880097136138e-01  1.2221742582225306e-01  1.2225804610795926e-01  1.2226882770021132e-01  1.1993393267231724e-01  1.1994518832317709e-01  1.1998751937609937e-01  1.2005910313728758e-01  1.2015772177006237e-01  1.2028043341124865e-01  1.2042375365518353e-01  1.2058383133728473e-01  1.2075659259956956e-01  1.2093784537318053e-01  1.2112334528334379e-01  1.2130883171235814e-01  1.2149004763670054e-01  1.2166275902914565e-01  1.2182278958718638e-01  1.2196608441222323e-01  1.2208881159477035e-01  1.2218750305169253e-01  1.2225922625077117e-01  1.2230174967347461e-01  1.2231303251969185e-01  1.1985819323452941e-01  1.1987030427149832e-01  1.1991581388877000e-01  1.1999268374113396e-01  1.2009835031134998e-01  1.2022946566765215e-01  1.2038214671656970e-01  1.2055219996130179e-01  1.2073529060371872e-01  1.2092704855459077e-01  1.2112311731250047e-01  1.2131916105752726e-01  1.2151084986622365e-01  1.2169384436850642e-01  1.2186380098394523e-01  1.2201641733598978e-01  1.2214753335644953e-01  1.2225329472399685e-01  1.2233037058946714e-01  1.2237617697172931e-01  1.2238832850941125e-01  1.1974885269033361e-01  1.1976225187314272e-01  1.1981255105234916e-01  1.1989732616386482e-01  1.2001343786475915e-01  1.2015688032171268e-01  1.2032314573033219e-01  1.2050752800997282e-01  1.2070532656165509e-01  1.2091194718676976e-01  1.2112291764886818e-01  1.2133384531145444e-01  1.2154034616353303e-01  1.2173797345881041e-01  1.2192217359121291e-01  1.2208829721693847e-01  1.2223169249320862e-01  1.2234789935648557e-01  1.2243294167857295e-01  1.2248365329612357e-01  1.2249710572536844e-01  1.1960223828861896e-01  1.1961746849275195e-01  1.1967457097664191e-01  1.1977047357509553e-01  1.1990110719089420e-01  1.2006143966997926e-01  1.2024603214624682e-01  1.2044946199322143e-01  1.2066656533458406e-01  1.2089251339054782e-01  1.2112276571988169e-01  1.2135294855567441e-01  1.2157869954537301e-01  1.2179551303374690e-01  1.2199861856724906e-01  1.2218293031337184e-01  1.2234311212736207e-01  1.2247380353691206e-01  1.2257002382723146e-01  1.2262767219309945e-01  1.2264296727165280e-01  1.1941310918237978e-01  1.1943089615617911e-01  1.1949748221036240e-01  1.1960871048306407e-01  1.1975900596689612e-01  1.1994174503120378e-01  1.2015013095528289e-01  1.2037778558501316e-01  1.2061901403425920e-01  1.2086880875086431e-01  1.2112269005305934e-01  1.2137646390107802e-01  1.2162594927578341e-01  1.2186670853188925e-01  1.2209381157753636e-01  1.2230167834309258e-01  1.2248406950312905e-01  1.2263431928848566e-01  1.2274589428824492e-01  1.2281318705040778e-01  1.2283104822044735e-01  1.1917409059204195e-01  1.1919547305372680e-01  1.1927533926965031e-01  1.1940767932441769e-01  1.1958443116498076e-01  1.1979648317151188e-01  1.2003508760078345e-01  1.2029266112073625e-01  1.2056299320530217e-01  1.2084107206347210e-01  1.2112273013307939e-01  1.2140423099603463e-01  1.2168184890290185e-01  1.2195145589886069e-01  1.2220812900042746e-01  1.2244581638386731e-01  1.2265716008816779e-01  1.2283364380503028e-01  1.2296631654342149e-01  1.2304709296298143e-01  1.2306855144035379e-01  1.1887469201655712e-01  1.1890128531342022e-01  1.1900014688602840e-01  1.1916202765485069e-01  1.1937462786420516e-01  1.1962488783757314e-01  1.1990132660477613e-01  1.2019499369114392e-01  1.2049937642119776e-01  1.2080983511286925e-01  1.2112293579666146e-01  1.2143582202957359e-01  1.2174563724246096e-01  1.2204896057902041e-01  1.2234122046195586e-01  1.2261609322755969e-01  1.2286498326070767e-01  1.2307686393024053e-01  1.2323898115408320e-01  1.2333903194321927e-01  1.2336566603014398e-01  1.1849958526312887e-01  1.1853412753397574e-01  1.1866108135960864e-01  1.1886550200275207e-01  1.1912747890697789e-01  1.1942759060843364e-01  1.1975077950730566e-01  1.2008694133650270e-01  1.2042989319664339e-01  1.2077605711990283e-01  1.2112336102742996e-01  1.2147039905240044e-01  1.2181574174968667e-01  1.2215726097709773e-01  1.2249134902382297e-01  1.2281195534159738e-01  1.2310945840341717e-01  1.2336973753323961e-01  1.2357415891739430e-01  1.2370278899707801e-01  1.2373719064112783e-01  1.1802610261293688e-01  1.1807287578998553e-01  1.1824316903894602e-01  1.1851156930448664e-01  1.1884308268684167e-01  1.1920814416091739e-01  1.1958795697793297e-01  1.1997254624922900e-01  1.2035744992949962e-01  1.2074124836618251e-01  1.2112404854910541e-01  1.2150656197786383e-01  1.2188944274723507e-01  1.2227262682387521e-01  1.2265443968917578e-01  1.2303023516683748e-01  1.2339042305052053e-01  1.2371778362300385e-01  1.2398554600108039e-01  1.2415891742843019e-01  1.2420536395215639e-01  1.1742448046168270e-01  1.1748298518908379e-01  1.1772494324272299e-01  1.1809597654990797e-01  1.1852731210556901e-01  1.1897554552188772e-01  1.1942129719458353e-01  1.1985833381694851e-01  1.2028635181840736e-01  1.2070752626918280e-01  1.2112500476417207e-01  1.2154223563998270e-01  1.2196258574515909e-01  1.2238892128355644e-01  1.2282283773763528e-01  1.2326313132331397e-01  1.2370283571680207e-01  1.2412381557120428e-01  1.2449034068151840e-01  1.2474030452090398e-01  1.2480397615751541e-01  1.1667220697145529e-01  1.1669229405078371e-01  1.1707725540997145e-01  1.1762630879465327e-01  1.1819913891590039e-01  1.1874760588685368e-01  1.1926426714604202e-01  1.1975349901360635e-01  1.2022222425671986e-01  1.2067752658595560e-01  1.2112617719839737e-01  1.2157469038839033e-01  1.2202951197425722e-01  1.2249715701423022e-01  1.2298403429657033e-01  1.2349530541611364e-01  1.2403163136124917e-01  1.2458250437351159e-01  1.2510429697212389e-01  1.2550274800664074e-01  1.2558319427326717e-01  1.1569528542013374e-01  1.1551341681005875e-01  1.1629146225225184e-01  1.1715105284210242e-01  1.1790144629954138e-01  1.1855292593363870e-01  1.1913486857341002e-01  1.1966909456441667e-01  1.2017141111512049e-01  1.2065409966167251e-01  1.2112744701112413e-01  1.2160081893153335e-01  1.2208355751718739e-01  1.2258585969158725e-01  1.2311976212179643e-01  1.2370018046006077e-01  1.2434443236360535e-01  1.2506272822252468e-01  1.2582779038907838e-01  1.2651983417531601e-01  1.2665332156791823e-01  1.1314791819163544e-01  1.1367154970113694e-01  1.1555915394955307e-01  1.1680883603571877e-01  1.1770184844338592e-01  1.1842558648390580e-01  1.1905187150407155e-01  1.1961583146917364e-01  1.2013976680869359e-01  1.2063975905243302e-01  1.2112859366326552e-01  1.2161761919305873e-01  1.2211821547641387e-01  1.2264327947510603e-01  1.2320918637819012e-01  1.2383911027769344e-01  1.2456992887200280e-01  1.2546447587362108e-01  1.2659417060114089e-01  1.2774912600223162e-01  1.2870488145388367e-01  9.9426274991677929e-02  1.1284694010134463e-01  1.1569020754318451e-01  1.1678493740993362e-01  1.1765177993667977e-01  1.1838980531888567e-01  1.1902891814236305e-01  1.1960130367111635e-01  1.2013115690753966e-01  1.2063581976692853e-01  1.2112881263070957e-01  1.2162203064611408e-01  1.2212741041774261e-01  1.2265860714967690e-01  1.2323323604692331e-01  1.2387626680594716e-01  1.2462442715462280e-01  1.2553349757556714e-01  1.2676677899616476e-01  1.2940819318582206e-01  1.3649630640608285e-01  </DataArray> 
</PointData> 
</Piece>
</UnstructuredGrid>
</VTKFile>