<?xml version="1.0"?>
<VTKFile type="UnstructuredGrid"  version="0.1"  >
<UnstructuredGrid>
<Piece  NumberOfPoints="651" NumberOfCells="1200">
<Points>
<DataArray  type="Float64"  NumberOfComponents="3"  format="ascii">0 0 0  50000 0 0  100000 0 0  150000 0 0  200000 0 0  250000 0 0  300000 0 0  350000 0 0  400000 0 0  450000 0 0  500000 0 0  550000 0 0  600000 0 0  650000 0 0  700000 0 0  750000 0 0  800000 0 0  850000 0 0  900000 0 0  950000 0 0  1000000 0 0  0 50000 0  50000 50000 0  100000 50000 0  150000 50000 0  200000 50000 0  250000 50000 0  300000 50000 0  350000 50000 0  400000 50000 0  450000 50000 0  500000 50000 0  550000 50000 0  600000 50000 0  650000 50000 0  700000 50000 0  750000 50000 0  800000 50000 0  850000 50000 0  900000 50000 0  950000 50000 0  1000000 50000 0  0 100000 0  50000 100000 0  100000 100000 0  150000 100000 0  200000 100000 0  250000 100000 0  300000 100000 0  350000 100000 0  400000 100000 0  450000 100000 0  500000 100000 0  550000 100000 0  600000 100000 0  650000 100000 0  700000 100000 0  750000 100000 0  800000 100000 0  850000 100000 0  900000 100000 0  950000 100000 0  1000000 100000 0  0 150000 0  50000 150000 0  100000 150000 0  150000 150000 0  200000 150000 0  250000 150000 0  300000 150000 0  350000 150000 0  400000 150000 0  450000 150000 0  500000 150000 0  550000 150000 0  600000 150000 0  650000 150000 0  700000 150000 0  750000 150000 0  800000 150000 0  850000 150000 0  900000 150000 0  950000 150000 0  1000000 150000 0  0 200000 0  50000 200000 0  100000 200000 0  150000 200000 0  200000 200000 0  250000 200000 0  300000 200000 0  350000 200000 0  400000 200000 0  450000 200000 0  500000 200000 0  550000 200000 0  600000 200000 0  650000 200000 0  700000 200000 0  750000 200000 0  800000 200000 0  850000 200000 0  900000 200000 0  950000 200000 0  1000000 200000 0  0 250000 0  50000 250000 0  100000 250000 0  150000 250000 0  200000 250000 0  250000 250000 0  300000 250000 0  350000 250000 0  400000 250000 0  450000 250000 0  500000 250000 0  550000 250000 0  600000 250000 0  650000 250000 0  700000 250000 0  750000 250000 0  800000 250000 0  850000 250000 0  900000 250000 0  950000 250000 0  1000000 250000 0  0 300000 0  50000 300000 0  100000 300000 0  150000 300000 0  200000 300000 0  250000 300000 0  300000 300000 0  350000 300000 0  400000 300000 0  450000 300000 0  500000 300000 0  550000 300000 0  600000 300000 0  650000 300000 0  700000 300000 0  750000 300000 0  800000 300000 0  850000 300000 0  900000 300000 0  950000 300000 0  1000000 300000 0  0 350000 0  50000 350000 0  100000 350000 0  150000 350000 0  200000 350000 0  250000 350000 0  300000 350000 0  350000 350000 0  400000 350000 0  450000 350000 0  500000 350000 0  550000 350000 0  600000 350000 0  650000 350000 0  700000 350000 0  750000 350000 0  800000 350000 0  850000 350000 0  900000 350000 0  950000 350000 0  1000000 350000 0  0 400000 0  50000 400000 0  100000 400000 0  150000 400000 0  200000 400000 0  250000 400000 0  300000 400000 0  350000 400000 0  400000 400000 0  450000 400000 0  500000 400000 0  550000 400000 0  600000 400000 0  650000 400000 0  700000 400000 0  750000 400000 0  800000 400000 0  850000 400000 0  900000 400000 0  950000 400000 0  1000000 400000 0  0 450000 0  50000 450000 0  100000 450000 0  150000 450000 0  200000 450000 0  250000 450000 0  300000 450000 0  350000 450000 0  400000 450000 0  450000 450000 0  500000 450000 0  550000 450000 0  600000 450000 0  650000 450000 0  700000 450000 0  750000 450000 0  800000 450000 0  850000 450000 0  900000 450000 0  950000 450000 0  1000000 450000 0  0 500000 0  50000 500000 0  100000 500000 0  150000 500000 0  200000 500000 0  250000 500000 0  300000 500000 0  350000 500000 0  400000 500000 0  450000 500000 0  500000 500000 0  550000 500000 0  600000 500000 0  650000 500000 0  700000 500000 0  750000 500000 0  800000 500000 0  850000 500000 0  900000 500000 0  950000 500000 0  1000000 500000 0  0 550000 0  50000 550000 0  100000 550000 0  150000 550000 0  200000 550000 0  250000 550000 0  300000 550000 0  350000 550000 0  400000 550000 0  450000 550000 0  500000 550000 0  550000 550000 0  600000 550000 0  650000 550000 0  700000 550000 0  750000 550000 0  800000 550000 0  850000 550000 0  900000 550000 0  950000 550000 0  1000000 550000 0  0 600000 0  50000 600000 0  100000 600000 0  150000 600000 0  200000 600000 0  250000 600000 0  300000 600000 0  350000 600000 0  400000 600000 0  450000 600000 0  500000 600000 0  550000 600000 0  600000 600000 0  650000 600000 0  700000 600000 0  750000 600000 0  800000 600000 0  850000 600000 0  900000 600000 0  950000 600000 0  1000000 600000 0  0 650000 0  50000 650000 0  100000 650000 0  150000 650000 0  200000 650000 0  250000 650000 0  300000 650000 0  350000 650000 0  400000 650000 0  450000 650000 0  500000 650000 0  550000 650000 0  600000 650000 0  650000 650000 0  700000 650000 0  750000 650000 0  800000 650000 0  850000 650000 0  900000 650000 0  950000 650000 0  1000000 650000 0  0 700000 0  50000 700000 0  100000 700000 0  150000 700000 0  200000 700000 0  250000 700000 0  300000 700000 0  350000 700000 0  400000 700000 0  450000 700000 0  500000 700000 0  550000 700000 0  600000 700000 0  650000 700000 0  700000 700000 0  750000 700000 0  800000 700000 0  850000 700000 0  900000 700000 0  950000 700000 0  1000000 700000 0  0 750000 0  50000 750000 0  100000 750000 0  150000 750000 0  200000 750000 0  250000 750000 0  300000 750000 0  350000 750000 0  400000 750000 0  450000 750000 0  500000 750000 0  550000 750000 0  600000 750000 0  650000 750000 0  700000 750000 0  750000 750000 0  800000 750000 0  850000 750000 0  900000 750000 0  950000 750000 0  1000000 750000 0  0 800000 0  50000 800000 0  100000 800000 0  150000 800000 0  200000 800000 0  250000 800000 0  300000 800000 0  350000 800000 0  400000 800000 0  450000 800000 0  500000 800000 0  550000 800000 0  600000 800000 0  650000 800000 0  700000 800000 0  750000 800000 0  800000 800000 0  850000 800000 0  900000 800000 0  950000 800000 0  1000000 800000 0  0 850000 0  50000 850000 0  100000 850000 0  150000 850000 0  200000 850000 0  250000 850000 0  300000 850000 0  350000 850000 0  400000 850000 0  450000 850000 0  500000 850000 0  550000 850000 0  600000 850000 0  650000 850000 0  700000 850000 0  750000 850000 0  800000 850000 0  850000 850000 0  900000 850000 0  950000 850000 0  1000000 850000 0  0 900000 0  50000 900000 0  100000 900000 0  150000 900000 0  200000 900000 0  250000 900000 0  300000 900000 0  350000 900000 0  400000 900000 0  450000 900000 0  500000 900000 0  550000 900000 0  600000 900000 0  650000 900000 0  700000 900000 0  750000 900000 0  800000 900000 0  850000 900000 0  900000 900000 0  950000 900000 0  1000000 900000 0  0 950000 0  50000 950000 0  100000 950000 0  150000 950000 0  200000 950000 0  250000 950000 0  300000 950000 0  350000 950000 0  400000 950000 0  450000 950000 0  500000 950000 0  550000 950000 0  600000 950000 0  650000 950000 0  700000 950000 0  750000 950000 0  800000 950000 0  850000 950000 0  900000 950000 0  950000 950000 0  1000000 950000 0  0 1000000 0  50000 1000000 0  100000 1000000 0  150000 1000000 0  200000 1000000 0  250000 1000000 0  300000 1000000 0  350000 1000000 0  400000 1000000 0  450000 1000000 0  500000 1000000 0  550000 1000000 0  600000 1000000 0  650000 1000000 0  700000 1000000 0  750000 1000000 0  800000 1000000 0  850000 1000000 0  900000 1000000 0  950000 1000000 0  1000000 1000000 0  0 1050000 0  50000 1050000 0  100000 1050000 0  150000 1050000 0  200000 1050000 0  250000 1050000 0  300000 1050000 0  350000 1050000 0  400000 1050000 0  450000 1050000 0  500000 1050000 0  550000 1050000 0  600000 1050000 0  650000 1050000 0  700000 1050000 0  750000 1050000 0  800000 1050000 0  850000 1050000 0  900000 1050000 0  950000 1050000 0  1000000 1050000 0  0 1100000 0  50000 1100000 0  100000 1100000 0  150000 1100000 0  200000 1100000 0  250000 1100000 0  300000 1100000 0  350000 1100000 0  400000 1100000 0  450000 1100000 0  500000 1100000 0  550000 1100000 0  600000 1100000 0  650000 1100000 0  700000 1100000 0  750000 1100000 0  800000 1100000 0  850000 1100000 0  900000 1100000 0  950000 1100000 0  1000000 1100000 0  0 1150000 0  50000 1150000 0  100000 1150000 0  150000 1150000 0  200000 1150000 0  250000 1150000 0  300000 1150000 0  350000 1150000 0  400000 1150000 0  450000 1150000 0  500000 1150000 0  550000 1150000 0  600000 1150000 0  650000 1150000 0  700000 1150000 0  750000 1150000 0  800000 1150000 0  850000 1150000 0  900000 1150000 0  950000 1150000 0  1000000 1150000 0  0 1200000 0  50000 1200000 0  100000 1200000 0  150000 1200000 0  200000 1200000 0  250000 1200000 0  300000 1200000 0  350000 1200000 0  400000 1200000 0  450000 1200000 0  500000 1200000 0  550000 1200000 0  600000 1200000 0  650000 1200000 0  700000 1200000 0  750000 1200000 0  800000 1200000 0  850000 1200000 0  900000 1200000 0  950000 1200000 0  1000000 1200000 0  0 1250000 0  50000 1250000 0  100000 1250000 0  150000 1250000 0  200000 1250000 0  250000 1250000 0  300000 1250000 0  350000 1250000 0  400000 1250000 0  450000 1250000 0  500000 1250000 0  550000 1250000 0  600000 1250000 0  650000 1250000 0  700000 1250000 0  750000 1250000 0  800000 1250000 0  850000 1250000 0  900000 1250000 0  950000 1250000 0  1000000 1250000 0  0 1300000 0  50000 1300000 0  100000 1300000 0  150000 1300000 0  200000 1300000 0  250000 1300000 0  300000 1300000 0  350000 1300000 0  400000 1300000 0  450000 1300000 0  500000 1300000 0  550000 1300000 0  600000 1300000 0  650000 1300000 0  700000 1300000 0  750000 1300000 0  800000 1300000 0  850000 1300000 0  900000 1300000 0  950000 1300000 0  1000000 1300000 0  0 1350000 0  50000 1350000 0  100000 1350000 0  150000 1350000 0  200000 1350000 0  250000 1350000 0  300000 1350000 0  350000 1350000 0  400000 1350000 0  450000 1350000 0  500000 1350000 0  550000 1350000 0  600000 1350000 0  650000 1350000 0  700000 135
[...]
<PointData  Scalars="f_6001"> 
<DataArray  type="Float64"  Name="f_6001"  format="ascii">1.0614047733815898e-01  1.1325505539442819e-01  1.1588348296265814e-01  1.1710933569929094e-01  1.1801630383895981e-01  1.1876312260560791e-01  1.1940468204394797e-01  1.1997788262213398e-01  1.2050775895806419e-01  1.2101189228419999e-01  1.2150389609471544e-01  1.2199567243951399e-01  1.2249907930630886e-01  1.2302759289279783e-01  1.2359856778981129e-01  1.2423648663555877e-01  1.2497349258611777e-01  1.2583250446718855e-01  1.2689010786337798e-01  1.2973297526536703e-01  1.4379569319913355e-01  1.1395420705936665e-01  1.1490251791888274e-01  1.1605083879582180e-01  1.1717844254895740e-01  1.1807123150090115e-01  1.1880027675728806e-01  1.1942862852592295e-01  1.1999314162937916e-01  1.2051691751935953e-01  1.2101628415045146e-01  1.2150410635016190e-01  1.2199173567902474e-01  1.2249049282674411e-01  1.2301313747112888e-01  1.2357571992922861e-01  1.2420038392380080e-01  1.2492158658366509e-01  1.2581070734108610e-01  1.2706341939106935e-01  1.2898252219538650e-01  1.2943346881219989e-01  1.1599586956193959e-01  1.1612487383517969e-01  1.1681588238112656e-01  1.1757958998378104e-01  1.1829618146790524e-01  1.1893883459374396e-01  1.1951782103765345e-01  1.2005041270755301e-01  1.2055148290937806e-01  1.2103303668907325e-01  1.2150524568494514e-01  1.2197742943605215e-01  1.2245893145840353e-01  1.2296001250563628e-01  1.2349290935470132e-01  1.2407334839954950e-01  1.2472319559716459e-01  1.2547281350717973e-01  1.2633433254181700e-01  1.2710901006701855e-01  1.2688553496141400e-01  1.1705960394645895e-01  1.1714016222947136e-01  1.1753807724152554e-01  1.1805868527456351e-01  1.1860819504589505e-01  1.1914319453614078e-01  1.1965321294998847e-01  1.2013889923916343e-01  1.2060539871452991e-01  1.2105910503394142e-01  1.2150651813370870e-01  1.2195406860082385e-01  1.2240825519937250e-01  1.2287583245293031e-01  1.2336386902365394e-01  1.2387930321759764e-01  1.2442664395048461e-01  1.2499864784489254e-01  1.2554642660480078e-01  1.2592699152001327e-01  1.2594519657797343e-01  1.1783716501871649e-01  1.1790119598229526e-01  1.1815057511144174e-01  1.1851621994932916e-01  1.1893616723173074e-01  1.1937479551476503e-01  1.1981401403098921e-01  1.2024686994818327e-01  1.2067216203811469e-01  1.2109148266879148e-01  1.2150769177019091e-01  1.2192414867536014e-01  1.2234429435801326e-01  1.2277127140250282e-01  1.2320725837727087e-01  1.2365197526866041e-01  1.2409922323455391e-01  1.2452955487099369e-01  1.2489927470774079e-01  1.2513993804309728e-01  1.2520027285835778e-01  1.1843479063292189e-01  1.1848119829476117e-01  1.1865413178211581e-01  1.1892124349566892e-01  1.1924780945454237e-01  1.1960712073972767e-01  1.1998199927292696e-01  1.2036287910448307e-01  1.2074512597577905e-01  1.2112706995044088e-01  1.2150864774601726e-01  1.2189051263467410e-01  1.2227337566586353e-01  1.2265734610446372e-01  1.2304101210397202e-01  1.2341992451844273e-01  1.2378411324537017e-01  1.2411476321898035e-01  1.2438235393177055e-01  1.2455223503596823e-01  1.2459928890691448e-01  1.1890192134374915e-01  1.1893620308032432e-01  1.1906451809399948e-01  1.1926844121150741e-01  1.1952808859110263e-01  1.1982486700504044e-01  1.2014469066393164e-01  1.2047796229175077e-01  1.2081864647716657e-01  1.2116314467031321e-01  1.2150933437612631e-01  1.2185579025171936e-01  1.2220111072209706e-01  1.2254322978710709e-01  1.2287857832643054e-01  1.2320098425024090e-01  1.2350035495332708e-01  1.2376165654669294e-01  1.2396553784552691e-01  1.2409218923789270e-01  1.2412658749369931e-01  1.1927253044754840e-01  1.1929907775246222e-01  1.1939888359935723e-01  1.1956060507203149e-01  1.1977196902288730e-01  1.2002025138177128e-01  1.2029445245057184e-01  1.2058599780748080e-01  1.2088857940401290e-01  1.2119763702055836e-01  1.2150975842793749e-01  1.2182209437393338e-01  1.2213179570358246e-01  1.2243543679440655e-01  1.2272838811773892e-01  1.2300414960247003e-01  1.2325378811197397e-01  1.2346585070875260e-01  1.2362731833071461e-01  1.2372592083930857e-01  1.2375240211021699e-01  1.1956891244951906e-01  1.1959031118484098e-01  1.1967088778797727e-01  1.1980323524623135e-01  1.1997928683670243e-01  1.2019011339103546e-01  1.2042721921202518e-01  1.2068326430993395e-01  1.2095221168309152e-01  1.2122915045074587e-01  1.2150996285898050e-01  1.2179093236452336e-01  1.2206833164881314e-01  1.2233800294455605e-01  1.2259494568501587e-01  1.2283296291044285e-01  1.2304448862428283e-01  1.2322079719109399e-01  1.2335280082768904e-01  1.2343245611019830e-01  1.2345377247376411e-01  1.1980583633499986e-01  1.1982365031148484e-01  1.1989077553754857e-01  1.2000207562225532e-01  1.2015195646322967e-01  1.2033390044117194e-01  1.2054125793096637e-01  1.2076780478241697e-01  1.2100797453629028e-01  1.2125684915128850e-01  1.2151000183450573e-01  1.2176326174996249e-01  1.2201244495048119e-01  1.2225308232702074e-01  1.2248017794212625e-01  1.2268805014153858e-01  1.2287033604058166e-01  1.2302025580752261e-01  1.2313120242477099e-01  1.2319761562942536e-01  1.2321535412912157e-01  1.1999346013175335e-01  1.2000871462191991e-01  1.2006621889943268e-01  1.2016220121997999e-01  1.2029257095168273e-01  1.2045235934151238e-01  1.2063621891241844e-01  1.2083882648286640e-01  1.2105510860171871e-01  1.2128030643668375e-01  1.2150992529621277e-01  1.2173961339999770e-01  1.2196500750191133e-01  1.2218157798576962e-01  1.2238450753029395e-01  1.2256864458389989e-01  1.2272857967648963e-01  1.2285888738565610e-01  1.2295454825114045e-01  1.2301150428400311e-01  1.2302669324714166e-01  1.2013896705620222e-01  1.2015238335880678e-01  1.2020296781358793e-01  1.2028779925148678e-01  1.2040371949811876e-01  1.2054676200970074e-01  1.2071247754134444e-01  1.2089622555609153e-01  1.2109336802010789e-01  1.2129936240242539e-01  1.2150977275621844e-01  1.2172022568656483e-01  1.2192633915148690e-01  1.2212365166379278e-01  1.2230758006485891e-01  1.2247343510992814e-01  1.2261652220292867e-01  1.2273234469293877e-01  1.2281690686015026e-01  1.2286707775354157e-01  1.2288044027386325e-01  1.2024747962960415e-01  1.2025959827158869e-01  1.2030528946330410e-01  1.2038217379989813e-01  1.2048767384996915e-01  1.2061846683882596e-01  1.2077070781162987e-01  1.2094024682138649e-01  1.2112279195825770e-01  1.2131401020150352e-01  1.2150957271623146e-01  1.2170516007160648e-01  1.2189644693461255e-01  1.2207908733058467e-01  1.2224872174258930e-01  1.2240102590393422e-01  1.2253181658207572e-01  1.2263722028913740e-01  1.2271389748601583e-01  1.2275929134689018e-01  1.2277136910404719e-01  1.2032259246154395e-01  1.2033384461395272e-01  1.2037626084146909e-01  1.2044780549831335e-01  1.2054625273517830e-01  1.2066867716067049e-01  1.2081161914271146e-01  1.2097125610807183e-01  1.2114354302905060e-01  1.2132431375833141e-01  1.2150934455152949e-01  1.2169438871148798e-01  1.2187519594723800e-01  1.2204753217230611e-01  1.2220721549516080e-01  1.2235018198236072e-01  1.2247258990386892e-01  1.2257096345340994e-01  1.2264236807959854e-01  1.2268459165688722e-01  1.2269581638017667e-01  1.2036668999858388e-01  1.2037744216055421e-01  1.2041795983628938e-01  1.2048641359889889e-01  1.2058076753488696e-01  1.2069831192258523e-01  1.2083580028030240e-01  1.2098959619137808e-01  1.2115580070963676e-01  1.2133035266180245e-01  1.2150910105555383e-01  1.2168785521606258e-01  1.2186242278194596e-01  1.2202864792865145e-01  1.2218246218068020e-01  1.2231995789487840e-01  1.2243748991210839e-01  1.2253180443226945e-01  1.2260018768955151e-01  1.2264061061323465e-01  1.2265134902482944e-01  1.2038113243697249e-01  1.2039171691314203e-01  1.2043158390127054e-01  1.2049900387637938e-01  1.2059200307893034e-01  1.2070793901488795e-01  1.2084363132331494e-01  1.2099550147292901e-01  1.2115969633245884e-01  1.2133218834189494e-01  1.2150885088207061e-01  1.2168551342224626e-01  1.2185800543168238e-01  1.2202220029121222e-01  1.2217407044082626e-01  1.2230976274925326e-01  1.2242569868521086e-01  1.2251869788776179e-01  1.2258611786287059e-01  1.2262598485099906e-01  1.2263656932716861e-01  1.2036635273931168e-01  1.2037709115090647e-01  1.2041751407458963e-01  1.2048589733187169e-01  1.2058021185203280e-01  1.2069774386926278e-01  1.2083523958346104e-01  1.2098905383548980e-01  1.2115527898219525e-01  1.2132984654807864e-01  1.2150860070858743e-01  1.2168734910233879e-01  1.2186190105450447e-01  1.2202810557276310e-01  1.2218190148383880e-01  1.2231938984155595e-01  1.2243693422925425e-01  1.2253128816524231e-01  1.2259974192785182e-01  1.2264025960358695e-01  1.2265101176555729e-01  1.2032188538396449e-01  1.2033311010725393e-01  1.2037533368454266e-01  1.2044673831073126e-01  1.2054511186027232e-01  1.2066751978178054e-01  1.2081048626898047e-01  1.2097016959183518e-01  1.2114250581690322e-01  1.2132331305265331e-01  1.2150835721261183e-01  1.2169338800580988e-01  1.2187415873509067e-01  1.2204644565606942e-01  1.2220608262142980e-01  1.2234902460347077e-01  1.2247144902896298e-01  1.2256989626582790e-01  1.2264144092267215e-01  1.2268385715018854e-01  1.2269510930259726e-01  1.2024633266009410e-01  1.2025841041725110e-01  1.2030380427812548e-01  1.2038048147500392e-01  1.2048588518206564e-01  1.2061667586020713e-01  1.2076898002155209e-01  1.2093861443355670e-01  1.2112125482952882e-01  1.2131254169253493e-01  1.2150812904790995e-01  1.2170369156263784e-01  1.2189490980588366e-01  1.2207745494275479e-01  1.2224699395251146e-01  1.2239923492531535e-01  1.2253002791417218e-01  1.2263552796424323e-01  1.2271241230083721e-01  1.2275810349255260e-01  1.2277022213453714e-01  1.2013726149027817e-01  1.2015062401059984e-01  1.2020079490399117e-01  1.2028535707120269e-01  1.2040117956121282e-01  1.2054426665421335e-01  1.2071012169928259e-01  1.2089405010034870e-01  1.2109136261265457e-01  1.2129747607757668e-01  1.2150792900792305e-01  1.2171833936171610e-01  1.2192433374403357e-01  1.2212147620804990e-01  1.2230522422279698e-01  1.2247093975444068e-01  1.2261398226602269e-01  1.2272990251265467e-01  1.2281473395055346e-01  1.2286531840533463e-01  1.2287873470793917e-01  1.1999100851699995e-01  1.2000619748013849e-01  1.2006315351300116e-01  1.2015881437848550e-01  1.2028912208765201e-01  1.2044905718024175e-01  1.2063319423384772e-01  1.2083612377837202e-01  1.2105269426223034e-01  1.2127808836414397e-01  1.2150777646792887e-01  1.2173739532745789e-01  1.2196259316242287e-01  1.2217887528127522e-01  1.2238148285172318e-01  1.2256534242262922e-01  1.2272513081245885e-01  1.2285550054416158e-01  1.2295148286470886e-01  1.2300898714222161e-01  1.2302424163238818e-01  1.1980234763502029e-01  1.1982008613471647e-01  1.1988649933937084e-01  1.1999744595661924e-01  1.2014736572356019e-01  1.2032965162260323e-01  1.2053752382201556e-01  1.2076461943712105e-01  1.2100525681366066e-01  1.2125444001417934e-01  1.2150769992963611e-01  1.2176085261285335e-01  1.2200972722785153e-01  1.2224989698172484e-01  1.2247644383317544e-01  1.2268380132296983e-01  1.2286574530091209e-01  1.2301562614188639e-01  1.2312692622659313e-01  1.2319405145265684e-01  1.2321186542914184e-01  1.1956392929037796e-01  1.1958524565394375e-01  1.1966490093645302e-01  1.1979690457304804e-01  1.1997321313985920e-01  1.2018473885369918e-01  1.2042275607912614e-01  1.2067969881958598e-01  1.2094937011532890e-01  1.2122676939961866e-01  1.2150773890516152e-01  1.2178855131339618e-01  1.2206549008105051e-01  1.2233443745420808e-01  1.2259048255211684e-01  1.2282758837310649e-01  1.2303841492743946e-01  1.2321446651791053e-01  1.2334681397616454e-01  1.2342739057930080e-01  1.2344878931462275e-01  1.1926529965392532e-01  1.1929178092483377e-01  1.1939038343342769e-01  1.1955185105538964e-01  1.1976391365216829e-01  1.2001355216167223e-01  1.2028931364640330e-01  1.2058226496973565e-01  1.2088590606055978e-01  1.2119560739020885e-01  1.2150794333620474e-01  1.2182006474358389e-01  1.2212912236012936e-01  1.2243170395666143e-01  1.2272324931357037e-01  1.2299745038237085e-01  1.2324573274125480e-01  1.2345709669211061e-01  1.2361881816478479e-01  1.2371862401167977e-01  1.2374517131659359e-01  1.1889111427044331e-01  1.1892551252624989e-01  1.1905216391861562e-01  1.1925604521744956e-01  1.1951734681081544e-01  1.1981671751390163e-01  1.2013912343771195e-01  1.2047447197703541e-01  1.2081659104204545e-01  1.2116191151242314e-01  1.2150836738801618e-01  1.2185455709382928e-01  1.2219905528697596e-01  1.2253973947239168e-01  1.2287301110021077e-01  1.2319283475910192e-01  1.2348961317303969e-01  1.2374926055263491e-01  1.2395318367014277e-01  1.2408149868381790e-01  1.2411578042039308e-01  1.1841841285722852e-01  1.1846546672817471e-01  1.1863534783237234e-01  1.1890293854516251e-01  1.1923358851877264e-01  1.1959777724570009e-01  1.1997668966017075e-01  1.2036035565967909e-01  1.2074432609827929e-01  1.2112718912946871e-01  1.2150905401812551e-01  1.2189063181370186e-01  1.2227257578836370e-01  1.2265482265965963e-01  1.2303570249121572e-01  1.2341058102441496e-01  1.2376989230960020e-01  1.2409645826847363e-01  1.2436356998202666e-01  1.2453650346938129e-01  1.2458291113122051e-01  1.1781742890578566e-01  1.1787776372104608e-01  1.1811842705640248e-01  1.1848814689314947e-01  1.1891847852958921e-01  1.1936572649548266e-01  1.1981044338687222e-01  1.2024643036164026e-01  1.2067340740612981e-01  1.2109355308878289e-01  1.2151000999395209e-01  1.2192621909535152e-01  1.2234553972602828e-01  1.2277083181595966e-01  1.2320368773315370e-01  1.2364290624937785e-01  1.2408153453241205e-01  1.2450148181481357e-01  1.2486712665270094e-01  1.2511650578184738e-01  1.2518053674542615e-01  1.1707250518617067e-01  1.1709071024413055e-01  1.1747127515934283e-01  1.1801905391925095e-01  1.1859105781365883e-01  1.1913839854654576e-01  1.1965383274048942e-01  1.2014186931121307e-01  1.2060944656477085e-01  1.2106363316331947e-01  1.2151118363043460e-01  1.2195859673020189e-01  1.2241230304961334e-01  1.2287880252497978e-01  1.2336448881415470e-01  1.2387450722800229e-01  1.2440950671824796e-01  1.2495901648957944e-01  1.2547962452261735e-01  1.2587753953467151e-01  1.2595809781768388e-01  1.1613216680273125e-01  1.1590869169712573e-01  1.1668336922232680e-01  1.1754488825696402e-01  1.1829450616697916e-01  1.1894435336459419e-01  1.1952479240944236e-01  1.2005768925850742e-01  1.2055877030574012e-01  1.2104027232809143e-01  1.2151245607919843e-01  1.2198466507507033e-01  1.2246621885476550e-01  1.2296728905659049e-01  1.2349988072648999e-01  1.2407886717039938e-01  1.2472152029623801e-01  1.2543811178036210e-01  1.2620181938301653e-01  1.2689282792896345e-01  1.2702183220220356e-01  1.1358423295194600e-01  1.1403517956875825e-01  1.1595428237307426e-01  1.1720699442305782e-01  1.1809611518047899e-01  1.1881731784034325e-01  1.1944198183491540e-01  1.2000456429301512e-01  1.2052720893739985e-01  1.2102596608511915e-01  1.2151359541398196e-01  1.2200141761369239e-01  1.2250078424478429e-01  1.2302456013476465e-01  1.2358907323822077e-01  1.2421742500685562e-01  1.2494647026324238e-01  1.2583925921518602e-01  1.2696686296832155e-01  1.2811518384525980e-01  1.2906349470477738e-01  9.9222008565030551e-02  1.1328472649876718e-01  1.1612759390076478e-01  1.1718519729695583e-01  1.1804420917802658e-01  1.1878121512858547e-01  1.1941913397433290e-01  1.1999010887134630e-01  1.2051862245783528e-01  1.2102202932463010e-01  1.2151380566942863e-01  1.2200580947994402e-01  1.2250994280607981e-01  1.2303981914201000e-01  1.2361301972019596e-01  1.2425457915853598e-01  1.2500139792518389e-01  1.2590836606485248e-01  1.2713421880148451e-01  1.2976264636971283e-01  1.3687722442599096e-01  </DataArray> 
</PointData> 
</Piece>
</UnstructuredGrid>
</VTKFile>