<?xml version="1.0"?>
<VTKFile type="UnstructuredGrid"  version="0.1"  >
<UnstructuredGrid>
<Piece  NumberOfPoints="651" NumberOfCells="1200">
<Points>
<DataArray  type="Float64"  NumberOfComponents="3"  format="ascii">0 0 0  50000 0 0  100000 0 0  150000 0 0  200000 0 0  250000 0 0  300000 0 0  350000 0 0  400000 0 0  450000 0 0  500000 0 0  550000 0 0  600000 0 0  650000 0 0  700000 0 0  750000 0 0  800000 0 0  850000 0 0  900000 0 0  950000 0 0  1000000 0 0  0 50000 0  50000 50000 0  100000 50000 0  150000 50000 0  200000 50000 0  250000 50000 0  300000 50000 0  350000 50000 0  400000 50000 0  450000 50000 0  500000 50000 0  550000 50000 0  600000 50000 0  650000 50000 0  700000 50000 0  750000 50000 0  800000 50000 0  850000 50000 0  900000 50000 0  950000 50000 0  1000000 50000 0  0 100000 0  50000 100000 0  100000 100000 0  150000 100000 0  200000 100000 0  250000 100000 0  300000 100000 0  350000 100000 0  400000 100000 0  450000 100000 0  500000 100000 0  550000 100000 0  600000 100000 0  650000 100000 0  700000 100000 0  750000 100000 0  800000 100000 0  850000 100000 0  900000 100000 0  950000 100000 0  1000000 100000 0  0 150000 0  50000 150000 0  100000 150000 0  150000 150000 0  200000 150000 0  250000 150000 0  300000 150000 0  350000 150000 0  400000 150000 0  450000 150000 0  500000 150000 0  550000 150000 0  600000 150000 0  650000 150000 0  700000 150000 0  750000 150000 0  800000 150000 0  850000 150000 0  900000 150000 0  950000 150000 0  1000000 150000 0  0 200000 0  50000 200000 0  100000 200000 0  150000 200000 0  200000 200000 0  250000 200000 0  300000 200000 0  350000 200000 0  400000 200000 0  450000 200000 0  500000 200000 0  550000 200000 0  600000 200000 0  650000 200000 0  700000 200000 0  750000 200000 0  800000 200000 0  850000 200000 0  900000 200000 0  950000 200000 0  1000000 200000 0  0 250000 0  50000 250000 0  100000 250000 0  150000 250000 0  200000 250000 0  250000 250000 0  300000 250000 0  350000 250000 0  400000 250000 0  450000 250000 0  500000 250000 0  550000 250000 0  600000 250000 0  650000 250000 0  700000 250000 0  750000 250000 0  800000 250000 0  850000 250000 0  900000 250000 0  950000 250000 0  1000000 250000 0  0 300000 0  50000 300000 0  100000 300000 0  150000 300000 0  200000 300000 0  250000 300000 0  300000 300000 0  350000 300000 0  400000 300000 0  450000 300000 0  500000 300000 0  550000 300000 0  600000 300000 0  650000 300000 0  700000 300000 0  750000 300000 0  800000 300000 0  850000 300000 0  900000 300000 0  950000 300000 0  1000000 300000 0  0 350000 0  50000 350000 0  100000 350000 0  150000 350000 0  200000 350000 0  250000 350000 0  300000 350000 0  350000 350000 0  400000 350000 0  450000 350000 0  500000 350000 0  550000 350000 0  600000 350000 0  650000 350000 0  700000 350000 0  750000 350000 0  800000 350000 0  850000 350000 0  900000 350000 0  950000 350000 0  1000000 350000 0  0 400000 0  50000 400000 0  100000 400000 0  150000 400000 0  200000 400000 0  250000 400000 0  300000 400000 0  350000 400000 0  400000 400000 0  450000 400000 0  500000 400000 0  550000 400000 0  600000 400000 0  650000 400000 0  700000 400000 0  750000 400000 0  800000 400000 0  850000 400000 0  900000 400000 0  950000 400000 0  1000000 400000 0  0 450000 0  50000 450000 0  100000 450000 0  150000 450000 0  200000 450000 0  250000 450000 0  300000 450000 0  350000 450000 0  400000 450000 0  450000 450000 0  500000 450000 0  550000 450000 0  600000 450000 0  650000 450000 0  700000 450000 0  750000 450000 0  800000 450000 0  850000 450000 0  900000 450000 0  950000 450000 0  1000000 450000 0  0 500000 0  50000 500000 0  100000 500000 0  150000 500000 0  200000 500000 0  250000 500000 0  300000 500000 0  350000 500000 0  400000 500000 0  450000 500000 0  500000 500000 0  550000 500000 0  600000 500000 0  650000 500000 0  700000 500000 0  750000 500000 0  800000 500000 0  850000 500000 0  900000 500000 0  950000 500000 0  1000000 500000 0  0 550000 0  50000 550000 0  100000 550000 0  150000 550000 0  200000 550000 0  250000 550000 0  300000 550000 0  350000 550000 0  400000 550000 0  450000 550000 0  500000 550000 0  550000 550000 0  600000 550000 0  650000 550000 0  700000 550000 0  750000 550000 0  800000 550000 0  850000 550000 0  900000 550000 0  950000 550000 0  1000000 550000 0  0 600000 0  50000 600000 0  100000 600000 0  150000 600000 0  200000 600000 0  250000 600000 0  300000 600000 0  350000 600000 0  400000 600000 0  450000 600000 0  500000 600000 0  550000 600000 0  600000 600000 0  650000 600000 0  700000 600000 0  750000 600000 0  800000 600000 0  850000 600000 0  900000 600000 0  950000 600000 0  1000000 600000 0  0 650000 0  50000 650000 0  100000 650000 0  150000 650000 0  200000 650000 0  250000 650000 0  300000 650000 0  350000 650000 0  400000 650000 0  450000 650000 0  500000 650000 0  550000 650000 0  600000 650000 0  650000 650000 0  700000 650000 0  750000 650000 0  800000 650000 0  850000 650000 0  900000 650000 0  950000 650000 0  1000000 650000 0  0 700000 0  50000 700000 0  100000 700000 0  150000 700000 0  200000 700000 0  250000 700000 0  300000 700000 0  350000 700000 0  400000 700000 0  450000 700000 0  500000 700000 0  550000 700000 0  600000 700000 0  650000 700000 0  700000 700000 0  750000 700000 0  800000 700000 0  850000 700000 0  900000 700000 0  950000 700000 0  1000000 700000 0  0 750000 0  50000 750000 0  100000 750000 0  150000 750000 0  200000 750000 0  250000 750000 0  300000 750000 0  350000 750000 0  400000 750000 0  450000 750000 0  500000 750000 0  550000 750000 0  600000 750000 0  650000 750000 0  700000 750000 0  750000 750000 0  800000 750000 0  850000 750000 0  900000 750000 0  950000 750000 0  1000000 750000 0  0 800000 0  50000 800000 0  100000 800000 0  150000 800000 0  200000 800000 0  250000 800000 0  300000 800000 0  350000 800000 0  400000 800000 0  450000 800000 0  500000 800000 0  550000 800000 0  600000 800000 0  650000 800000 0  700000 800000 0  750000 800000 0  800000 800000 0  850000 800000 0  900000 800000 0  950000 800000 0  1000000 800000 0  0 850000 0  50000 850000 0  100000 850000 0  150000 850000 0  200000 850000 0  250000 850000 0  300000 850000 0  350000 850000 0  400000 850000 0  450000 850000 0  500000 850000 0  550000 850000 0  600000 850000 0  650000 850000 0  700000 850000 0  750000 850000 0  800000 850000 0  850000 850000 0  900000 850000 0  950000 850000 0  1000000 850000 0  0 900000 0  50000 900000 0  100000 900000 0  150000 900000 0  200000 900000 0  250000 900000 0  300000 900000 0  350000 900000 0  400000 900000 0  450000 900000 0  500000 900000 0  550000 900000 0  600000 900000 0  650000 900000 0  700000 900000 0  750000 900000 0  800000 900000 0  850000 900000 0  900000 900000 0  950000 900000 0  1000000 900000 0  0 950000 0  50000 950000 0  100000 950000 0  150000 950000 0  200000 950000 0  250000 950000 0  300000 950000 0  350000 950000 0  400000 950000 0  450000 950000 0  500000 950000 0  550000 950000 0  600000 950000 0  650000 950000 0  700000 950000 0  750000 950000 0  800000 950000 0  850000 950000 0  900000 950000 0  950000 950000 0  1000000 950000 0  0 1000000 0  50000 1000000 0  100000 1000000 0  150000 1000000 0  200000 1000000 0  250000 1000000 0  300000 1000000 0  350000 1000000 0  400000 1000000 0  450000 1000000 0  500000 1000000 0  550000 1000000 0  600000 1000000 0  650000 1000000 0  700000 1000000 0  750000 1000000 0  800000 1000000 0  850000 1000000 0  900000 1000000 0  950000 1000000 0  1000000 1000000 0  0 1050000 0  50000 1050000 0  100000 1050000 0  150000 1050000 0  200000 1050000 0  250000 1050000 0  300000 1050000 0  350000 1050000 0  400000 1050000 0  450000 1050000 0  500000 1050000 0  550000 1050000 0  600000 1050000 0  650000 1050000 0  700000 1050000 0  750000 1050000 0  800000 1050000 0  850000 1050000 0  900000 1050000 0  950000 1050000 0  1000000 1050000 0  0 1100000 0  50000 1100000 0  100000 1100000 0  150000 1100000 0  200000 1100000 0  250000 1100000 0  300000 1100000 0  350000 1100000 0  400000 1100000 0  450000 1100000 0  500000 1100000 0  550000 1100000 0  600000 1100000 0  650000 1100000 0  700000 1100000 0  750000 1100000 0  800000 1100000 0  850000 1100000 0  900000 1100000 0  950000 1100000 0  1000000 1100000 0  0 1150000 0  50000 1150000 0  100000 1150000 0  150000 1150000 0  200000 1150000 0  250000 1150000 0  300000 1150000 0  350000 1150000 0  400000 1150000 0  450000 1150000 0  500000 1150000 0  550000 1150000 0  600000 1150000 0  650000 1150000 0  700000 1150000 0  750000 1150000 0  800000 1150000 0  850000 1150000 0  900000 1150000 0  950000 1150000 0  1000000 1150000 0  0 1200000 0  50000 1200000 0  100000 1200000 0  150000 1200000 0  200000 1200000 0  250000 1200000 0  300000 1200000 0  350000 1200000 0  400000 1200000 0  450000 1200000 0  500000 1200000 0  550000 1200000 0  600000 1200000 0  650000 1200000 0  700000 1200000 0  750000 1200000 0  800000 1200000 0  850000 1200000 0  900000 1200000 0  950000 1200000 0  1000000 1200000 0  0 1250000 0  50000 1250000 0  100000 1250000 0  150000 1250000 0  200000 1250000 0  250000 1250000 0  300000 1250000 0  350000 1250000 0  400000 1250000 0  450000 1250000 0  500000 1250000 0  550000 1250000 0  600000 1250000 0  650000 1250000 0  700000 1250000 0  750000 1250000 0  800000 1250000 0  850000 1250000 0  900000 1250000 0  950000 1250000 0  1000000 1250000 0  0 1300000 0  50000 1300000 0  100000 1300000 0  150000 1300000 0  200000 1300000 0  250000 1300000 0  300000 1300000 0  350000 1300000 0  400000 1300000 0  450000 1300000 0  500000 1300000 0  550000 1300000 0  600000 1300000 0  650000 1300000 0  700000 1300000 0  750000 1300000 0  800000 1300000 0  850000 1300000 0  900000 1300000 0  950000 1300000 0  1000000 1300000 0  0 1350000 0  50000 1350000 0  100000 1350000 0  150000 1350000 0  200000 1350000 0  250000 1350000 0  300000 1350000 0  350000 1350000 0  400000 1350000 0  450000 1350000 0  500000 1350000 0  550000 1350000 0  600000 1350000 0  650000 1350000 0  700000 135
[...]
<PointData  Scalars="f_6001"> 
<DataArray  type="Float64"  Name="f_6001"  format="ascii">1.0507022652397821e-01  1.1212722985381875e-01  1.1470299910147123e-01  1.1590731976384611e-01  1.1680113598952765e-01  1.1753699425886270e-01  1.1816889025635542e-01  1.1873339252553278e-01  1.1925521806129058e-01  1.1975168925726005e-01  1.2023621503796067e-01  1.2072051915025980e-01  1.2121628119307473e-01  1.2173677180253871e-01  1.2229909926094047e-01  1.2292755076377031e-01  1.2365425821159511e-01  1.2450028717271582e-01  1.2552817715615514e-01  1.2830647059395731e-01  1.4253429411065235e-01  1.1280021603850560e-01  1.1373571693102666e-01  1.1486377561567909e-01  1.1597588948342299e-01  1.1685555300897990e-01  1.1757358197472967e-01  1.1819240670524227e-01  1.1874835489144914e-01  1.1926417783873550e-01  1.1975595905534620e-01  1.2023637122368486e-01  1.2071659593060044e-01  1.2120778472346425e-01  1.2172250996996993e-01  1.2227659492725362e-01  1.2289185163135131e-01  1.2360203478446510e-01  1.2447706353953064e-01  1.2571260905146922e-01  1.2762003468754882e-01  1.2801748701200899e-01  1.1480957075260692e-01  1.1493606078515725e-01  1.1561802688914315e-01  1.1637111869145217e-01  1.1707711560786163e-01  1.1771002063130248e-01  1.1828020159463286e-01  1.1880470360374333e-01  1.1929816625290941e-01  1.1977240888389051e-01  1.2023744926592575e-01  1.2070246711087482e-01  1.2117666635186737e-01  1.2167015482166821e-01  1.2219498294496305e-01  1.2276661824572992e-01  1.2340656047416902e-01  1.2414490160424486e-01  1.2499436613961074e-01  1.2575747122692874e-01  1.2552603503261758e-01  1.1585751655698306e-01  1.1593743408449787e-01  1.1632993869163677e-01  1.1684294552641217e-01  1.1738425333113348e-01  1.1791121331899315e-01  1.1841352233754480e-01  1.1889184554350539e-01  1.1935126749253117e-01  1.1979808933975092e-01  1.2023871360676901e-01  1.2067947443029269e-01  1.2112677310411396e-01  1.2158726195937691e-01  1.2206789992140074e-01  1.2257551511380940e-01  1.2311455755917890e-01  1.2367793571816899e-01  1.2421739154553782e-01  1.2459167620141377e-01  1.2461236972284641e-01  1.1662427871226533e-01  1.1668756863112192e-01  1.1693338901173263e-01  1.1729357179830036e-01  1.1770723024030023e-01  1.1813926386837882e-01  1.1857185545735811e-01  1.1899816374096929e-01  1.1941701205575425e-01  1.1982997448533249e-01  1.2023987081761914e-01  1.2065001103629495e-01  1.2106378474063821e-01  1.2148428691835278e-01  1.2191366248203347e-01  1.2235163596137869e-01  1.2279210559352914e-01  1.2321591360750019e-01  1.2358000323741711e-01  1.2381716580742104e-01  1.2387790675225738e-01  1.1721329413916029e-01  1.1725901071544605e-01  1.1742940685152022e-01  1.1769250959436575e-01  1.1801416095022939e-01  1.1836805884233703e-01  1.1873727970364802e-01  1.1911240019547384e-01  1.1948885903953491e-01  1.1986501449869331e-01  1.2024080653324090e-01  1.2061688005862120e-01  1.2099393622318158e-01  1.2137208304667732e-01  1.2174993039377019e-01  1.2212309728918382e-01  1.2248176577842583e-01  1.2280740782348584e-01  1.2307096886870889e-01  1.2323838949555106e-01  1.2328485634633786e-01  1.1767350638458321e-01  1.1770724313085630e-01  1.1783363552701186e-01  1.1803448838226475e-01  1.1829021486688733e-01  1.1858251161702259e-01  1.1889750190881640e-01  1.1922573181737872e-01  1.1956125712397658e-01  1.1990053477973717e-01  1.2024147571163472e-01  1.2058267722006297e-01  1.2092275972170355e-01  1.2125968906529415e-01  1.2158995073067760e-01  1.2190746686618376e-01  1.2220229905522145e-01  1.2245964424994719e-01  1.2266044959022249e-01  1.2278519579064570e-01  1.2281901248079111e-01  1.1803857490860535e-01  1.1806469407663187e-01  1.1816298312421114e-01  1.1832225687681061e-01  1.1853042132356637e-01  1.1877494617666950e-01  1.1904499721579950e-01  1.1933212820997072e-01  1.1963012578646487e-01  1.1993449884014040e-01  1.2024188728927353e-01  1.2054948561500671e-01  1.2085448834573963e-01  1.2115352220478517e-01  1.2144202823267952e-01  1.2171360533660117e-01  1.2195945635587709e-01  1.2216830215388841e-01  1.2232731753812925e-01  1.2242440537677461e-01  1.2245043984395637e-01  1.1833051084068918e-01  1.1835156061086372e-01  1.1843090172683099e-01  1.1856123581642683e-01  1.1873461580886946e-01  1.1894224567205708e-01  1.1917575772635719e-01  1.1942792199330596e-01  1.1969279210670156e-01  1.1996553122718026e-01  1.2024208399970970e-01  1.2051879038985808e-01  1.2079197980950263e-01  1.2105755773765234e-01  1.2131059958993862e-01  1.2154500243923513e-01  1.2175331478386159e-01  1.2192694200789006e-01  1.2205693010318154e-01  1.2213535169342392e-01  1.2215631161657006e-01  1.1856387253124442e-01  1.1858139290515245e-01  1.1864748285957773e-01  1.1875708300972659e-01  1.1890468375292410e-01  1.1908386419312775e-01  1.1928807450717034e-01  1.1951118401999122e-01  1.1974770991453129e-01  1.1999280822018575e-01  1.2024211901802738e-01  1.2049153463327612e-01  1.2073693455939234e-01  1.2097391746038126e-01  1.2119756310338196e-01  1.2140227578042065e-01  1.2158178851048623e-01  1.2172942287829441e-01  1.2183866935687461e-01  1.2190404973026345e-01  1.2192149016974151e-01  1.1874867048517587e-01  1.1876367154642019e-01  1.1882028521856555e-01  1.1891479712504228e-01  1.1904317920618004e-01  1.1920053667037908e-01  1.1938160215627319e-01  1.1958113247769950e-01  1.1979413048641958e-01  1.2001590902587272e-01  1.2024204122548920e-01  1.2046824107806707e-01  1.2069021135060268e-01  1.2090349097122634e-01  1.2110333546968312e-01  1.2128467107046545e-01  1.2144216971574298e-01  1.2157048718302636e-01  1.2166467848247099e-01  1.2172074635974510e-01  1.2173567878778346e-01  1.1889198326603401e-01  1.1890517540669290e-01  1.1895497395016562e-01  1.1903850277122019e-01  1.1915265242121717e-01  1.1929351565004100e-01  1.1945670993099763e-01  1.1963766449852889e-01  1.1983181112770014e-01  1.2003467572603849e-01  1.2024188925539510e-01  1.2044914435518447e-01  1.2065212519341384e-01  1.2084643770246394e-01  1.2102756794638297e-01  1.2119089741558466e-01  1.2133180217457322e-01  1.2144585301205758e-01  1.2152911379184181e-01  1.2157850093052874e-01  1.2159163718957443e-01  1.1899885833213079e-01  1.1901077362565812e-01  1.1905575320044831e-01  1.1913145482883945e-01  1.1923534107417703e-01  1.1936413901056364e-01  1.1951406144894011e-01  1.1968102089228837e-01  1.1986079007384827e-01  1.2004910127839936e-01  1.2024169095882557e-01  1.2043430487138247e-01  1.2062268298622414e-01  1.2080254494797574e-01  1.2096959704039469e-01  1.2111958021353385e-01  1.2124837424493154e-01  1.2135216387004238e-01  1.2142765955824300e-01  1.2147234352541633e-01  1.2148421658277977e-01  1.1907283733479283e-01  1.1908390004341984e-01  1.1912565442528567e-01  1.1919609704109271e-01  1.1929303668775228e-01  1.1941359197495985e-01  1.1955435534209150e-01  1.1971156179775405e-01  1.1988122727616760e-01  1.2005924844193359e-01  1.2024146525630436e-01  1.2042369509680267e-01  1.2060175181587537e-01  1.2077146522745709e-01  1.2092871653979829e-01  1.2106950311463899e-01  1.2119004113279455e-01  1.2128690712741898e-01  1.2135721063208432e-01  1.2139877356151428e-01  1.2140980803815848e-01  1.1911626948870366e-01  1.1912684014689881e-01  1.1916672473076177e-01  1.1923412310370421e-01  1.1932703105801573e-01  1.1944277968947968e-01  1.1957817144258445e-01  1.1972962472304913e-01  1.1989329937387899e-01  1.2006519546836614e-01  1.2024122462839365e-01  1.2041725940336583e-01  1.2058917068780085e-01  1.2075286536083898e-01  1.2090433632547977e-01  1.2103973488099772e-01  1.2115547084272792e-01  1.2124833946040067e-01  1.2131566782160590e-01  1.2135545826653542e-01  1.2136601479999133e-01  1.1913049489776568e-01  1.1914090034517102e-01  1.1918014383867448e-01  1.1924652385279294e-01  1.1933809730718713e-01  1.1945226152436868e-01  1.1958588409935363e-01  1.1973544047320786e-01  1.1989713563021499e-01  1.2006700276257751e-01  1.2024097750481873e-01  1.2041495224705993e-01  1.2058481937942242e-01  1.2074651453642958e-01  1.2089607091028380e-01  1.2102969348526880e-01  1.2114385770245036e-01  1.2123543115684450e-01  1.2130181117096292e-01  1.2134105466446637e-01  1.2135146011187171e-01  1.1911594020964608e-01  1.1912649674310199e-01  1.1916628718803154e-01  1.1923361554923678e-01  1.1932648416690955e-01  1.1944222012863974e-01  1.1957761868415770e-01  1.1972908964879850e-01  1.1989278432183659e-01  1.2006469560627163e-01  1.2024073038124385e-01  1.2041675954127135e-01  1.2058865563575846e-01  1.2075233028658829e-01  1.2090378356705295e-01  1.2103917532015775e-01  1.2115492395162175e-01  1.2124783190593325e-01  1.2131523027887570e-01  1.2135511486273864e-01  1.2136568552093381e-01  1.1907214697147890e-01  1.1908318144812316e-01  1.1912474437755316e-01  1.1919504788221852e-01  1.1929191387684297e-01  1.1941245189499851e-01  1.1955323846983923e-01  1.1971048978218043e-01  1.1988020319376214e-01  1.2005825991283486e-01  1.2024048975333319e-01  1.2042270656770393e-01  1.2060072773346989e-01  1.2077039321188342e-01  1.2092759966754599e-01  1.2106836303467766e-01  1.2118891832188526e-01  1.2128585796854482e-01  1.2135630058435187e-01  1.2139805496621769e-01  1.2140911767484468e-01  1.1899773842685778e-01  1.1900961148422122e-01  1.1905429545139458e-01  1.1912979113959518e-01  1.1923358076470607e-01  1.1936237479610373e-01  1.1951235796924292e-01  1.1967941006166184e-01  1.1985927202341345e-01  1.2004765013825514e-01  1.2024026405081206e-01  1.2043285373123828e-01  1.2062116493578934e-01  1.2080093411734918e-01  1.2096789356069747e-01  1.2111781599907392e-01  1.2124661393546057e-01  1.2135050018079818e-01  1.2142620180918928e-01  1.2147118138397948e-01  1.2148309667750680e-01  1.1889031782006328e-01  1.1890345407910896e-01  1.1895284121779592e-01  1.1903610199758015e-01  1.1915015283506454e-01  1.1929105759405308e-01  1.1945438706325477e-01  1.1963551730717377e-01  1.1982982981622388e-01  1.2003281065445325e-01  1.2024006575424261e-01  1.2044727928359925e-01  1.2065014388193758e-01  1.2084429051110879e-01  1.2102524507864004e-01  1.2118843935959668e-01  1.2132930258842055e-01  1.2144345223841752e-01  1.2152698105947204e-01  1.2157677960294477e-01  1.2158997174360366e-01  1.1874627622185446e-01  1.1876120864989279e-01  1.1881727652716695e-01  1.1891146782661155e-01  1.1903978529389495e-01  1.1919728393917248e-01  1.1937861953995479e-01  1.1957846403841155e-01  1.1979174365903519e-01  1.2001371393157077e-01  1.2023991378414864e-01  1.2046604598376512e-01  1.2068782452321827e-01  1.2090082253193835e-01  1.2110035285336465e-01  1.2128141833925876e-01  1.2143877580345777e-01  1.2156715788459552e-01  1.2166166979107222e-01  1.2171828346321759e-01  1.2173328452446193e-01  1.1856046483989666e-01  1.1857790527937472e-01  1.1864328565276355e-01  1.1875253213134375e-01  1.1890016649915189e-01  1.1907967922921746e-01  1.1928439190625612e-01  1.1950803754925679e-01  1.1974502045024571e-01  1.1999042037636194e-01  1.2023983599161063e-01  1.2048914678945227e-01  1.2073424509510676e-01  1.2097077098964684e-01  1.2119388050246770e-01  1.2139809081651023e-01  1.2157727125671386e-01  1.2172487199991135e-01  1.2183447215006017e-01  1.2190056210448547e-01  1.2191808247839352e-01  1.1832564339306839e-01  1.1834660331621455e-01  1.1842502490645687e-01  1.1855501300174834e-01  1.1872864022577680e-01  1.1893695257040318e-01  1.1917135541969966e-01  1.1942439727198592e-01  1.1968997520013563e-01  1.1996316461978017e-01  1.2023987100992851e-01  1.2051642378245797e-01  1.2078916290293669e-01  1.2105403301633227e-01  1.2130619728328097e-01  1.2153970933758104e-01  1.2174733920076862e-01  1.2192071919321122e-01  1.2205105328280702e-01  1.2213039439877428e-01  1.2215144416894883e-01  1.1803151516568240e-01  1.1805754963286416e-01  1.1815463747150946e-01  1.1831365285575025e-01  1.1852249865376152e-01  1.1876834967303740e-01  1.1903992677695897e-01  1.1932843280485331e-01  1.1962746666389884e-01  1.1993246939463176e-01  1.2024006772036490e-01  1.2054745616949802e-01  1.2085182922317358e-01  1.2114982679966772e-01  1.2143695779383885e-01  1.2170700883296880e-01  1.2195153368607189e-01  1.2215969813282761e-01  1.2231897188542705e-01  1.2241726093300631e-01  1.2244338010103283e-01  1.1766294252884804e-01  1.1769675921899339e-01  1.1782150541941655e-01  1.1802231075969175e-01  1.1827965595441742e-01  1.1857448814345506e-01  1.1889200427896116e-01  1.1922226594434462e-01  1.1955919528793520e-01  1.1989927778957574e-01  1.2024047929800391e-01  1.2058142022990148e-01  1.2092069788566207e-01  1.2125622319225991e-01  1.2158445310082218e-01  1.2189944339261592e-01  1.2219174014275111e-01  1.2244746662737366e-01  1.2264831948262653e-01  1.2277471187878206e-01  1.2280844862505516e-01  1.1719709866330182e-01  1.1724356551408852e-01  1.1741098614093054e-01  1.1767454718615343e-01  1.1800018923121330e-01  1.1835885772045526e-01  1.1873202461586886e-01  1.1910987196296173e-01  1.1948801878645743e-01  1.1986507495101775e-01  1.2024114847639802e-01  1.2061694051094560e-01  1.2099309597010402e-01  1.2136955481416502e-01  1.2174467530599076e-01  1.2211389616730167e-01  1.2246779405940923e-01  1.2278944541527283e-01  1.2305254815811834e-01  1.2322294429419252e-01  1.2326866087047827e-01  1.1660404825738298e-01  1.1666478920221908e-01  1.1690195177222265e-01  1.1726604140213931e-01  1.1768984941611027e-01  1.1813031904826066e-01  1.1856829252760584e-01  1.1899766809128656e-01  1.1941817026900106e-01  1.1983194397334425e-01  1.2024208419202004e-01  1.2065198052430669e-01  1.2106494295388487e-01  1.2148379126866975e-01  1.2191009955228088e-01  1.2234269114126012e-01  1.2277472476933858e-01  1.2318838321133839e-01  1.2354856599790612e-01  1.2379438637851686e-01  1.2385767629737346e-01  1.1586958528679539e-01  1.1589027880822701e-01  1.1626456346410216e-01  1.1680401929147069e-01  1.1736739745046074e-01  1.1790643989583022e-01  1.1841405508823882e-01  1.1889469305026266e-01  1.1935518190552558e-01  1.1980248057934681e-01  1.2024324140287045e-01  1.2068386566988851e-01  1.2113068751710818e-01  1.2159010946613390e-01  1.2206843267209440e-01  1.2257074169064593e-01  1.2309770167850548e-01  1.2363900948322670e-01  1.2415201631800210e-01  1.2454452092514115e-01  1.2462443845265589e-01  1.1495591997702685e-01  1.1472448378271277e-01  1.1548758887002886e-01  1.1633705340539474e-01  1.1707539453547081e-01  1.1771533676391001e-01  1.1828697206467687e-01  1.1881180018797168e-01  1.1930528865777247e-01  1.1977948789876497e-01  1.2024450574371401e-01  1.2070954612574916e-01  1.2118378875673022e-01  1.2167725140589621e-01  1.2220175341500658e-01  1.2277193437833679e-01  1.2340483940177746e-01  1.2411083631818672e-01  1.2486392812049579e-01  1.2554589422448198e-01  1.2567238425703228e-01  1.1246446799763429e-01  1.1286192032209430e-01  1.1476934595816878e-01  1.1600489147010898e-01  1.1687992022517513e-01  1.1759010337828896e-01  1.1820536008238662e-01  1.1875944503967026e-01  1.1927417028617590e-01  1.1976535907903962e-01  1.2024558378595515e-01  1.2072599595429376e-01  1.2121777717090440e-01  1.2173360011819065e-01  1.2228954830439742e-01  1.2290837303490990e-01  1.2362640200065944e-01  1.2450606552621621e-01  1.2561817939396011e-01  1.2674623807860910e-01  1.2768173897113527e-01  9.7947660899084327e-02  1.1217548441563593e-01  1.1495377785347900e-01  1.1598166783692553e-01  1.1682769679804578e-01  1.1755440424587014e-01  1.1818285574869992e-01  1.1874518320710163e-01  1.1926567381656557e-01  1.1976143585938043e-01  1.2024573997167953e-01  1.2073026575238005e-01  1.2122673694834946e-01  1.2174856248410715e-01  1.2231306475328443e-01  1.2294496075077702e-01  1.2368081902011183e-01  1.2457463524579279e-01  1.2577895590816487e-01  1.2835472515581062e-01  1.3541172848568575e-01  </DataArray> 
</PointData> 
</Piece>
</UnstructuredGrid>
</VTKFile>