<?xml version="1.0"?>
<VTKFile type="UnstructuredGrid"  version="0.1"  >
<UnstructuredGrid>
<Piece  NumberOfPoints="651" NumberOfCells="1200">
<Points>
<DataArray  type="Float64"  NumberOfComponents="3"  format="ascii">0 0 0  50000 0 0  100000 0 0  150000 0 0  200000 0 0  250000 0 0  300000 0 0  350000 0 0  400000 0 0  450000 0 0  500000 0 0  550000 0 0  600000 0 0  650000 0 0  700000 0 0  750000 0 0  800000 0 0  850000 0 0  900000 0 0  950000 0 0  1000000 0 0  0 50000 0  50000 50000 0  100000 50000 0  150000 50000 0  200000 50000 0  250000 50000 0  300000 50000 0  350000 50000 0  400000 50000 0  450000 50000 0  500000 50000 0  550000 50000 0  600000 50000 0  650000 50000 0  700000 50000 0  750000 50000 0  800000 50000 0  850000 50000 0  900000 50000 0  950000 50000 0  1000000 50000 0  0 100000 0  50000 100000 0  100000 100000 0  150000 100000 0  200000 100000 0  250000 100000 0  300000 100000 0  350000 100000 0  400000 100000 0  450000 100000 0  500000 100000 0  550000 100000 0  600000 100000 0  650000 100000 0  700000 100000 0  750000 100000 0  800000 100000 0  850000 100000 0  900000 100000 0  950000 100000 0  1000000 100000 0  0 150000 0  50000 150000 0  100000 150000 0  150000 150000 0  200000 150000 0  250000 150000 0  300000 150000 0  350000 150000 0  400000 150000 0  450000 150000 0  500000 150000 0  550000 150000 0  600000 150000 0  650000 150000 0  700000 150000 0  750000 150000 0  800000 150000 0  850000 150000 0  900000 150000 0  950000 150000 0  1000000 150000 0  0 200000 0  50000 200000 0  100000 200000 0  150000 200000 0  200000 200000 0  250000 200000 0  300000 200000 0  350000 200000 0  400000 200000 0  450000 200000 0  500000 200000 0  550000 200000 0  600000 200000 0  650000 200000 0  700000 200000 0  750000 200000 0  800000 200000 0  850000 200000 0  900000 200000 0  950000 200000 0  1000000 200000 0  0 250000 0  50000 250000 0  100000 250000 0  150000 250000 0  200000 250000 0  250000 250000 0  300000 250000 0  350000 250000 0  400000 250000 0  450000 250000 0  500000 250000 0  550000 250000 0  600000 250000 0  650000 250000 0  700000 250000 0  750000 250000 0  800000 250000 0  850000 250000 0  900000 250000 0  950000 250000 0  1000000 250000 0  0 300000 0  50000 300000 0  100000 300000 0  150000 300000 0  200000 300000 0  250000 300000 0  300000 300000 0  350000 300000 0  400000 300000 0  450000 300000 0  500000 300000 0  550000 300000 0  600000 300000 0  650000 300000 0  700000 300000 0  750000 300000 0  800000 300000 0  850000 300000 0  900000 300000 0  950000 300000 0  1000000 300000 0  0 350000 0  50000 350000 0  100000 350000 0  150000 350000 0  200000 350000 0  250000 350000 0  300000 350000 0  350000 350000 0  400000 350000 0  450000 350000 0  500000 350000 0  550000 350000 0  600000 350000 0  650000 350000 0  700000 350000 0  750000 350000 0  800000 350000 0  850000 350000 0  900000 350000 0  950000 350000 0  1000000 350000 0  0 400000 0  50000 400000 0  100000 400000 0  150000 400000 0  200000 400000 0  250000 400000 0  300000 400000 0  350000 400000 0  400000 400000 0  450000 400000 0  500000 400000 0  550000 400000 0  600000 400000 0  650000 400000 0  700000 400000 0  750000 400000 0  800000 400000 0  850000 400000 0  900000 400000 0  950000 400000 0  1000000 400000 0  0 450000 0  50000 450000 0  100000 450000 0  150000 450000 0  200000 450000 0  250000 450000 0  300000 450000 0  350000 450000 0  400000 450000 0  450000 450000 0  500000 450000 0  550000 450000 0  600000 450000 0  650000 450000 0  700000 450000 0  750000 450000 0  800000 450000 0  850000 450000 0  900000 450000 0  950000 450000 0  1000000 450000 0  0 500000 0  50000 500000 0  100000 500000 0  150000 500000 0  200000 500000 0  250000 500000 0  300000 500000 0  350000 500000 0  400000 500000 0  450000 500000 0  500000 500000 0  550000 500000 0  600000 500000 0  650000 500000 0  700000 500000 0  750000 500000 0  800000 500000 0  850000 500000 0  900000 500000 0  950000 500000 0  1000000 500000 0  0 550000 0  50000 550000 0  100000 550000 0  150000 550000 0  200000 550000 0  250000 550000 0  300000 550000 0  350000 550000 0  400000 550000 0  450000 550000 0  500000 550000 0  550000 550000 0  600000 550000 0  650000 550000 0  700000 550000 0  750000 550000 0  800000 550000 0  850000 550000 0  900000 550000 0  950000 550000 0  1000000 550000 0  0 600000 0  50000 600000 0  100000 600000 0  150000 600000 0  200000 600000 0  250000 600000 0  300000 600000 0  350000 600000 0  400000 600000 0  450000 600000 0  500000 600000 0  550000 600000 0  600000 600000 0  650000 600000 0  700000 600000 0  750000 600000 0  800000 600000 0  850000 600000 0  900000 600000 0  950000 600000 0  1000000 600000 0  0 650000 0  50000 650000 0  100000 650000 0  150000 650000 0  200000 650000 0  250000 650000 0  300000 650000 0  350000 650000 0  400000 650000 0  450000 650000 0  500000 650000 0  550000 650000 0  600000 650000 0  650000 650000 0  700000 650000 0  750000 650000 0  800000 650000 0  850000 650000 0  900000 650000 0  950000 650000 0  1000000 650000 0  0 700000 0  50000 700000 0  100000 700000 0  150000 700000 0  200000 700000 0  250000 700000 0  300000 700000 0  350000 700000 0  400000 700000 0  450000 700000 0  500000 700000 0  550000 700000 0  600000 700000 0  650000 700000 0  700000 700000 0  750000 700000 0  800000 700000 0  850000 700000 0  900000 700000 0  950000 700000 0  1000000 700000 0  0 750000 0  50000 750000 0  100000 750000 0  150000 750000 0  200000 750000 0  250000 750000 0  300000 750000 0  350000 750000 0  400000 750000 0  450000 750000 0  500000 750000 0  550000 750000 0  600000 750000 0  650000 750000 0  700000 750000 0  750000 750000 0  800000 750000 0  850000 750000 0  900000 750000 0  950000 750000 0  1000000 750000 0  0 800000 0  50000 800000 0  100000 800000 0  150000 800000 0  200000 800000 0  250000 800000 0  300000 800000 0  350000 800000 0  400000 800000 0  450000 800000 0  500000 800000 0  550000 800000 0  600000 800000 0  650000 800000 0  700000 800000 0  750000 800000 0  800000 800000 0  850000 800000 0  900000 800000 0  950000 800000 0  1000000 800000 0  0 850000 0  50000 850000 0  100000 850000 0  150000 850000 0  200000 850000 0  250000 850000 0  300000 850000 0  350000 850000 0  400000 850000 0  450000 850000 0  500000 850000 0  550000 850000 0  600000 850000 0  650000 850000 0  700000 850000 0  750000 850000 0  800000 850000 0  850000 850000 0  900000 850000 0  950000 850000 0  1000000 850000 0  0 900000 0  50000 900000 0  100000 900000 0  150000 900000 0  200000 900000 0  250000 900000 0  300000 900000 0  350000 900000 0  400000 900000 0  450000 900000 0  500000 900000 0  550000 900000 0  600000 900000 0  650000 900000 0  700000 900000 0  750000 900000 0  800000 900000 0  850000 900000 0  900000 900000 0  950000 900000 0  1000000 900000 0  0 950000 0  50000 950000 0  100000 950000 0  150000 950000 0  200000 950000 0  250000 950000 0  300000 950000 0  350000 950000 0  400000 950000 0  450000 950000 0  500000 950000 0  550000 950000 0  600000 950000 0  650000 950000 0  700000 950000 0  750000 950000 0  800000 950000 0  850000 950000 0  900000 950000 0  950000 950000 0  1000000 950000 0  0 1000000 0  50000 1000000 0  100000 1000000 0  150000 1000000 0  200000 1000000 0  250000 1000000 0  300000 1000000 0  350000 1000000 0  400000 1000000 0  450000 1000000 0  500000 1000000 0  550000 1000000 0  600000 1000000 0  650000 1000000 0  700000 1000000 0  750000 1000000 0  800000 1000000 0  850000 1000000 0  900000 1000000 0  950000 1000000 0  1000000 1000000 0  0 1050000 0  50000 1050000 0  100000 1050000 0  150000 1050000 0  200000 1050000 0  250000 1050000 0  300000 1050000 0  350000 1050000 0  400000 1050000 0  450000 1050000 0  500000 1050000 0  550000 1050000 0  600000 1050000 0  650000 1050000 0  700000 1050000 0  750000 1050000 0  800000 1050000 0  850000 1050000 0  900000 1050000 0  950000 1050000 0  1000000 1050000 0  0 1100000 0  50000 1100000 0  100000 1100000 0  150000 1100000 0  200000 1100000 0  250000 1100000 0  300000 1100000 0  350000 1100000 0  400000 1100000 0  450000 1100000 0  500000 1100000 0  550000 1100000 0  600000 1100000 0  650000 1100000 0  700000 1100000 0  750000 1100000 0  800000 1100000 0  850000 1100000 0  900000 1100000 0  950000 1100000 0  1000000 1100000 0  0 1150000 0  50000 1150000 0  100000 1150000 0  150000 1150000 0  200000 1150000 0  250000 1150000 0  300000 1150000 0  350000 1150000 0  400000 1150000 0  450000 1150000 0  500000 1150000 0  550000 1150000 0  600000 1150000 0  650000 1150000 0  700000 1150000 0  750000 1150000 0  800000 1150000 0  850000 1150000 0  900000 1150000 0  950000 1150000 0  1000000 1150000 0  0 1200000 0  50000 1200000 0  100000 1200000 0  150000 1200000 0  200000 1200000 0  250000 1200000 0  300000 1200000 0  350000 1200000 0  400000 1200000 0  450000 1200000 0  500000 1200000 0  550000 1200000 0  600000 1200000 0  650000 1200000 0  700000 1200000 0  750000 1200000 0  800000 1200000 0  850000 1200000 0  900000 1200000 0  950000 1200000 0  1000000 1200000 0  0 1250000 0  50000 1250000 0  100000 1250000 0  150000 1250000 0  200000 1250000 0  250000 1250000 0  300000 1250000 0  350000 1250000 0  400000 1250000 0  450000 1250000 0  500000 1250000 0  550000 1250000 0  600000 1250000 0  650000 1250000 0  700000 1250000 0  750000 1250000 0  800000 1250000 0  850000 1250000 0  900000 1250000 0  950000 1250000 0  1000000 1250000 0  0 1300000 0  50000 1300000 0  100000 1300000 0  150000 1300000 0  200000 1300000 0  250000 1300000 0  300000 1300000 0  350000 1300000 0  400000 1300000 0  450000 1300000 0  500000 1300000 0  550000 1300000 0  600000 1300000 0  650000 1300000 0  700000 1300000 0  750000 1300000 0  800000 1300000 0  850000 1300000 0  900000 1300000 0  950000 1300000 0  1000000 1300000 0  0 1350000 0  50000 1350000 0  100000 1350000 0  150000 1350000 0  200000 1350000 0  250000 1350000 0  300000 1350000 0  350000 1350000 0  400000 1350000 0  450000 1350000 0  500000 1350000 0  550000 1350000 0  600000 1350000 0  650000 1350000 0  700000 135
[...]
<PointData  Scalars="f_6001"> 
<DataArray  type="Float64"  Name="f_6001"  format="ascii">1.0540232036851446e-01  1.1243338004451653e-01  1.1498646154431391e-01  1.1618156836826282e-01  1.1706967547885608e-01  1.1780076811926266e-01  1.1842847341360216e-01  1.1898920560436119e-01  1.1950754098183074e-01  1.2000069031098713e-01  1.2048197420041096e-01  1.2096303916854437e-01  1.2145548805413607e-01  1.2197250425076973e-01  1.2253108627660325e-01  1.2315540086780680e-01  1.2387756226364310e-01  1.2471856436022076e-01  1.2573715658630477e-01  1.2848639974947729e-01  1.4271836104753172e-01  1.1309504740821964e-01  1.1402514656014960e-01  1.1514451097784878e-01  1.1624989564555804e-01  1.1712385687602533e-01  1.1783710989764147e-01  1.1845180510910505e-01  1.1900403999657122e-01  1.1951641491898923e-01  1.2000490763071371e-01  1.2048210749471758e-01  1.2095912249880571e-01  1.2144703105334789e-01  1.2195832409096000e-01  1.2250872542527559e-01  1.2311991229706287e-01  1.2382539508014399e-01  1.2469448913003546e-01  1.2592195701227507e-01  1.2782068465805899e-01  1.2820195985167873e-01  1.1509053414172983e-01  1.1521603745892010e-01  1.1589407216787545e-01  1.1664255021710761e-01  1.1734395190036796e-01  1.1797263082598766e-01  1.1853899433840821e-01  1.1905998918121216e-01  1.1955015369883507e-01  1.2002122674564736e-01  1.2048315941406039e-01  1.2094507083704252e-01  1.2141610444423960e-01  1.2190630182531240e-01  1.2242763384005508e-01  1.2299546005473802e-01  1.2363111187887765e-01  1.2436445295997101e-01  1.2520826794819129e-01  1.2596650788011010e-01  1.2573606955521419e-01  1.1613173756163093e-01  1.1621136345796920e-01  1.1660151339649018e-01  1.1711122322823990e-01  1.1764897574152638e-01  1.1817245046596858e-01  1.1867141700407122e-01  1.1914654797674423e-01  1.1960290157041079e-01  1.2004673876782174e-01  1.2048441984619548e-01  1.2092223712020557e-01  1.2136654959333421e-01  1.2182396526520718e-01  1.2230139524204568e-01  1.2280561668253601e-01  1.2334103926297679e-01  1.2390061790095266e-01  1.2443645792693285e-01  1.2480837990113144e-01  1.2483037818221944e-01  1.1689380630320444e-01  1.1695676153324752e-01  1.1720103995734957e-01  1.1755885478873454e-01  1.1796978685723612e-01  1.1839896142944094e-01  1.1882867992019684e-01  1.1925214948328559e-01  1.1966820412418676e-01  1.2007840997374350e-01  1.2048556938325033e-01  1.2089297089327319e-01  1.2130398173040825e-01  1.2172167598236104e-01  1.2214818310528415e-01  1.2258322729377978e-01  1.2302074685544445e-01  1.2344172153604925e-01  1.2380341269352184e-01  1.2403913091471887e-01  1.2409985158874901e-01  1.1747907611351656e-01  1.1752449284634467e-01  1.1769378957073540e-01  1.1795515423768900e-01  1.1827467483475815e-01  1.1862622573824874e-01  1.1899299371294800e-01  1.1936561723460598e-01  1.1973956665534100e-01  1.2011321244872714e-01  1.2048649595022723e-01  1.2086005839294832e-01  1.2123459651664252e-01  1.2161021756119719e-01  1.2198554038229946e-01  1.2235621336668483e-01  1.2271248654381420e-01  1.2303596293693415e-01  1.2329779283704267e-01  1.2346414725285484e-01  1.2351032384350062e-01  1.1793628837596554e-01  1.1796978999012606e-01  1.1809534858092416e-01  1.1829487025314539e-01  1.1854889683056641e-01  1.1883925055749407e-01  1.1915214533742256e-01  1.1947818938013791e-01  1.1981147800055306e-01  1.2014849220042539e-01  1.2048715736906473e-01  1.2082608057745314e-01  1.2116389170425107e-01  1.2149857031668504e-01  1.2182662556642340e-01  1.2214202090306908e-01  1.2243488609211381e-01  1.2269051951502008e-01  1.2288999545906340e-01  1.2301391549705670e-01  1.2304748587959856e-01  1.1829895584171021e-01  1.1832488940397981e-01  1.1842252062467851e-01  1.1858073308947381e-01  1.1878751039462693e-01  1.1903040618604233e-01  1.1929865796573930e-01  1.1958387507594737e-01  1.1987988518678534e-01  1.2018222714777073e-01  1.2048756346850559e-01  1.2079310756718625e-01  1.2109607288989081e-01  1.2139310886719218e-01  1.2167968726041532e-01  1.2194945022742067e-01  1.2219366002485642e-01  1.2240111289699782e-01  1.2255906686194679e-01  1.2265549954160888e-01  1.2268134307498572e-01  1.1858896429010211e-01  1.1860986251415709e-01  1.1868866790494742e-01  1.1881812904285274e-01  1.1899035074910178e-01  1.1919659467874273e-01  1.1942854863537000e-01  1.1967903033021401e-01  1.1994213268682993e-01  1.2021305096050353e-01  1.2048775684195367e-01  1.2076261479146286e-01  1.2103397882506715e-01  1.2129778188583162e-01  1.2154913243736057e-01  1.2178196848451579e-01  1.2198888828934595e-01  1.2216135396718625e-01  1.2229046927855863e-01  1.2236835697767873e-01  1.2238916247800895e-01  1.1882078142767269e-01  1.1883817436330095e-01  1.1890381543979790e-01  1.1901267854727027e-01  1.1915929072947032e-01  1.1933727302048278e-01  1.1954011885428355e-01  1.1976173807464303e-01  1.1999668412315687e-01  1.2024014513974313e-01  1.2048779019818018e-01  1.2073553901251968e-01  1.2097929859883935e-01  1.2121469704340301e-01  1.2143684699826027e-01  1.2164019008591725e-01  1.2181850093303878e-01  1.2196514504516492e-01  1.2207365504562841e-01  1.2213858807868910e-01  1.2215589916732993e-01  1.1900435413527807e-01  1.1901924525021303e-01  1.1907547277466100e-01  1.1916934715781835e-01  1.1929686747021612e-01  1.1945317098814273e-01  1.1963302507835204e-01  1.1983122123098236e-01  1.2004279537587803e-01  1.2026309143090722e-01  1.2048771193210220e-01  1.2071239939649273e-01  1.2093288522779669e-01  1.2114473809837494e-01  1.2134324515574446e-01  1.2152336637096638e-01  1.2167980898424760e-01  1.2180726394127529e-01  1.2190081846114653e-01  1.2195650150060804e-01  1.2197132268067508e-01  1.1914671559541162e-01  1.1915981050068798e-01  1.1920926829355917e-01  1.1929223234752788e-01  1.1940561433920475e-01  1.1954553272615635e-01  1.1970763390445263e-01  1.1988737735439331e-01  1.2008022511490626e-01  1.2028173276567322e-01  1.2048756028055162e-01  1.2069342893592878e-01  1.2089505161764870e-01  1.2108806350422950e-01  1.2126798068761982e-01  1.2143021533469461e-01  1.2157017413869969e-01  1.2168345710015105e-01  1.2176615386889940e-01  1.2181520133971610e-01  1.2182823949636844e-01  1.1925288068277813e-01  1.1926470777141877e-01  1.1930937881288724e-01  1.1938456766862954e-01  1.1948775424128245e-01  1.1961568721677986e-01  1.1976460444851378e-01  1.1993044551240739e-01  1.2010901116672101e-01  1.2029606201050637e-01  1.2048736280567147e-01  1.2067868757648945e-01  1.2086580461379856e-01  1.2104446202096213e-01  1.2121039461734116e-01  1.2135937162972796e-01  1.2148730014631708e-01  1.2159039012722950e-01  1.2166537369698613e-01  1.2170974996743043e-01  1.2172153426103766e-01  1.1932636807435112e-01  1.1933734861130349e-01  1.1937881604501552e-01  1.1944878087060318e-01  1.1954506690405294e-01  1.1966481183080989e-01  1.1980463066380728e-01  1.1996078337433679e-01  1.2012931232593345e-01  1.2030614141633970e-01  1.2048713822931160e-01  1.2066814792655627e-01  1.2084501217554841e-01  1.2101358849971365e-01  1.2116978546767643e-01  1.2130962701507624e-01  1.2142935442373717e-01  1.2152556690697096e-01  1.2159539309676400e-01  1.2163666964803956e-01  1.2164762161962951e-01  1.1936951170552276e-01  1.1938000363871706e-01  1.1941961374814726e-01  1.1948655456766216e-01  1.1957883563182235e-01  1.1969380573058094e-01  1.1982828851748288e-01  1.1997872616416907e-01  1.2014130400082872e-01  1.2031204865509017e-01  1.2048689889771630e-01  1.2066175469259968e-01  1.2083251436285705e-01  1.2099511197619238e-01  1.2114556704783731e-01  1.2128005643027381e-01  1.2139501376837289e-01  1.2148725557012495e-01  1.2155412662686696e-01  1.2159364288604960e-01  1.2160412053871007e-01  1.1938364296447218e-01  1.1939397076340399e-01  1.1943294395285689e-01  1.1949887311715809e-01  1.1958982847033645e-01  1.1970322459287180e-01  1.1983594986653057e-01  1.1998450312882197e-01  1.2014511455886492e-01  1.2031384368892119e-01  1.2048665314613681e-01  1.2065946260335243e-01  1.2082819173340871e-01  1.2098880316345167e-01  1.2113735642574304e-01  1.2127008169940187e-01  1.2138347782193720e-01  1.2147443317511553e-01  1.2154036233941674e-01  1.2157933552886960e-01  1.2158966332780141e-01  1.1936918575356353e-01  1.1937966340622402e-01  1.1941917966540669e-01  1.1948605072214868e-01  1.1957829252390076e-01  1.1969324986199985e-01  1.1982773924443635e-01  1.1997819431608130e-01  1.2014079192941657e-01  1.2031155159967397e-01  1.2048640739455736e-01  1.2066125763718351e-01  1.2083200229144493e-01  1.2099458012810455e-01  1.2114501777479074e-01  1.2127950056169268e-01  1.2139447066045131e-01  1.2148675172461146e-01  1.2155369254412636e-01  1.2159330265355653e-01  1.2160379458675084e-01  1.1932568467264405e-01  1.1933663664423412e-01  1.1937791319550971e-01  1.1944773938530276e-01  1.1954395186853650e-01  1.1966367927719744e-01  1.1980352082459728e-01  1.1995971779256004e-01  1.2012829411672526e-01  1.2030515836571742e-01  1.2048616806296211e-01  1.2066716487593400e-01  1.2084399396634023e-01  1.2101252291793688e-01  1.2116867562846639e-01  1.2130849446146380e-01  1.2142823938822078e-01  1.2152452542167048e-01  1.2159449024725813e-01  1.2163595768097016e-01  1.2164693821792251e-01  1.1925177203123612e-01  1.1926355632484337e-01  1.1930793259528769e-01  1.1938291616504429e-01  1.1948600614595671e-01  1.1961393466254584e-01  1.1976291167493265e-01  1.1992884427131163e-01  1.2010750167847520e-01  1.2029461871578433e-01  1.2048594348660235e-01  1.2067724428176746e-01  1.2086429512555275e-01  1.2104286077986631e-01  1.2120870184375998e-01  1.2135761907549387e-01  1.2148555205099132e-01  1.2158873862364424e-01  1.2166392747938651e-01  1.2170859852085494e-01  1.2172042560949559e-01  1.1914506679590552e-01  1.1915810495255787e-01  1.1920715242337455e-01  1.1928984919212288e-01  1.1940313215357420e-01  1.1954309095757926e-01  1.1970532560465409e-01  1.1988524278804438e-01  1.2007825467462517e-01  1.2027987735634511e-01  1.2048574601172228e-01  1.2069157352660066e-01  1.2089308117736758e-01  1.2108592893788053e-01  1.2126567238782118e-01  1.2142777356611750e-01  1.2156769195306913e-01  1.2168107394474598e-01  1.2176403799871466e-01  1.2181349579158582e-01  1.2182659069686218e-01  1.1900198361159910e-01  1.1901680479166613e-01  1.1907248783112763e-01  1.1916604235099883e-01  1.1929349730802651e-01  1.1944993992130767e-01  1.1963006113652959e-01  1.1982856819389909e-01  1.2004042106447735e-01  1.2026090689578132e-01  1.2048559436017182e-01  1.2071021486136679e-01  1.2093051091639594e-01  1.2114208506129161e-01  1.2134028121392193e-01  1.2152013530413125e-01  1.2167643882205789e-01  1.2180395913445560e-01  1.2189783351761291e-01  1.2195406104206087e-01  1.2196895215699582e-01  1.1881740712494451e-01  1.1883471821358531e-01  1.1889965124664596e-01  1.1900816124710946e-01  1.1915480535923553e-01  1.1933311620635702e-01  1.1953645929401395e-01  1.1975860924887119e-01  1.1999400769343486e-01  1.2023776727975455e-01  1.2048551609409401e-01  1.2073316115253105e-01  1.2097662216911728e-01  1.2121156821763109e-01  1.2143318743799057e-01  1.2163603327179134e-01  1.2181401556280377e-01  1.2196062774500380e-01  1.2206949085247612e-01  1.2213513192897309e-01  1.2215252486460135e-01  1.1858414381426576e-01  1.1860494931459596e-01  1.1868283701371600e-01  1.1881195232508834e-01  1.1898441800292858e-01  1.1919133780775873e-01  1.1942417385491387e-01  1.1967552440644282e-01  1.1993932746720730e-01  1.2021069150081157e-01  1.2048554945032071e-01  1.2076025533177089e-01  1.2103117360544446e-01  1.2129427596206031e-01  1.2154475765690430e-01  1.2177671161353154e-01  1.2198295554317246e-01  1.2215517724942143e-01  1.2228463838732670e-01  1.2236344377811703e-01  1.2238434200217202e-01  1.1829196321728931e-01  1.1831780675066614e-01  1.1841423943032814e-01  1.1857219339527703e-01  1.1877964626741835e-01  1.1902385606485405e-01  1.1929361903185937e-01  1.1958019742508247e-01  1.1987723340238382e-01  1.2018019872508837e-01  1.2048574282376900e-01  1.2079107914450388e-01  1.2109342110548926e-01  1.2138943121632717e-01  1.2167464832653518e-01  1.2194290010623209e-01  1.2218579589764747e-01  1.2239257320280053e-01  1.2255078566759578e-01  1.2264841688829445e-01  1.2267435045056405e-01  1.1792582041267685e-01  1.1795939079521867e-01  1.1808331083321186e-01  1.1828278677725504e-01  1.1853842020016120e-01  1.1883128538920590e-01  1.1914668072585154e-01  1.1947473597558986e-01  1.1980941458802380e-01  1.2014722571482170e-01  1.2048614892321005e-01  1.2082481409184941e-01  1.2116182829172172e-01  1.2149511691213678e-01  1.2182116095485210e-01  1.2213405573478051e-01  1.2242440946170814e-01  1.2267843603912916e-01  1.2287795771135035e-01  1.2300351630214840e-01  1.2303701791630892e-01  1.1746298244877534e-01  1.1750915903942102e-01  1.1767551345523300e-01  1.1793734335534130e-01  1.1826081974846112e-01  1.1861709292559039e-01  1.1898776590997569e-01  1.1936308873107795e-01  1.1973870977563258e-01  1.2011324789932670e-01  1.2048681034204781e-01  1.2086009384354786e-01  1.2123373963693398e-01  1.2160768905766893e-01  1.2198031257932686e-01  1.2234708055402603e-01  1.2269863145751657e-01  1.2301815205458567e-01  1.2327951672153928e-01  1.2344881344592996e-01  1.2349423017875805e-01  1.1687345470352777e-01  1.1693417537755763e-01  1.1716989359875420e-01  1.1753158475622645e-01  1.1795255943683111e-01  1.1839007899849568e-01  1.1882512318699129e-01  1.1925163030991437e-01  1.1966932456186710e-01  1.2008033539900208e-01  1.2048773690902492e-01  1.2089489631853176e-01  1.2130510216808843e-01  1.2172115680898951e-01  1.2214462637207818e-01  1.2257434486283400e-01  1.2300351943503871e-01  1.2341445150354022e-01  1.2377226633492522e-01  1.2401654475902732e-01  1.2407949998907040e-01  1.1614292811005912e-01  1.1616492639114581e-01  1.1653684836534335e-01  1.1707268839132313e-01  1.1763226702929891e-01  1.1816768960973971e-01  1.1867191105023001e-01  1.1914934102706851e-01  1.1960675669894141e-01  1.2005106917206997e-01  1.2048888644608002e-01  1.2092656752445376e-01  1.2137040472186464e-01  1.2182675831553109e-01  1.2230188928820401e-01  1.2280085582630651e-01  1.2332433055074857e-01  1.2386208306403494e-01  1.2437179289578471e-01  1.2476194283430589e-01  1.2484156873064409e-01  1.1523723673706764e-01  1.1500679841216797e-01  1.1576503834408430e-01  1.1660885333230459e-01  1.1734219441339824e-01  1.1797784623753797e-01  1.1854567245222093e-01  1.1906700446696358e-01  1.1955720184803628e-01  1.2002823545523329e-01  1.2049014687821538e-01  1.2095207954662836e-01  1.2142315259344061e-01  1.2191331711106336e-01  1.2243431195386724e-01  1.2300067546628761e-01  1.2362935439190709e-01  1.2433075607516721e-01  1.2507923412439942e-01  1.2575726883335522e-01  1.2588277215054539e-01  1.1277134644060118e-01  1.1315262163422124e-01  1.1505134927999826e-01  1.1627881716224005e-01  1.1714791121213237e-01  1.1785339399521352e-01  1.1846458086700073e-01  1.1901498220131630e-01  1.1952627523892831e-01  1.2001418379347045e-01  1.2049119879755847e-01  1.2096839866156227e-01  1.2145689137328668e-01  1.2196926629570458e-01  1.2252150118317064e-01  1.2313619639463406e-01  1.2384944941624992e-01  1.2472341064671710e-01  1.2582879531442634e-01  1.2694815973212095e-01  1.2787825888405757e-01  9.8254945244874520e-02  1.1248690654273592e-01  1.1523614970596346e-01  1.1625474193205707e-01  1.1709574402863407e-01  1.1781790542446978e-01  1.1844222001567323e-01  1.1900080204150666e-01  1.1951781823814030e-01  1.2001026712373196e-01  1.2049133209186527e-01  1.2097261598128899e-01  1.2146576531044531e-01  1.2198410068791476e-01  1.2254483287867368e-01  1.2317253817301300e-01  1.2390363081341933e-01  1.2479173792401187e-01  1.2598684474795704e-01  1.2853992624774552e-01  1.3557098592379332e-01  </DataArray> 
</PointData> 
</Piece>
</UnstructuredGrid>
</VTKFile>