<?xml version="1.0"?>
<VTKFile type="UnstructuredGrid"  version="0.1"  >
<UnstructuredGrid>
<Piece  NumberOfPoints="651" NumberOfCells="1200">
<Points>
<DataArray  type="Float64"  NumberOfComponents="3"  format="ascii">0 0 0  50000 0 0  100000 0 0  150000 0 0  200000 0 0  250000 0 0  300000 0 0  350000 0 0  400000 0 0  450000 0 0  500000 0 0  550000 0 0  600000 0 0  650000 0 0  700000 0 0  750000 0 0  800000 0 0  850000 0 0  900000 0 0  950000 0 0  1000000 0 0  0 50000 0  50000 50000 0  100000 50000 0  150000 50000 0  200000 50000 0  250000 50000 0  300000 50000 0  350000 50000 0  400000 50000 0  450000 50000 0  500000 50000 0  550000 50000 0  600000 50000 0  650000 50000 0  700000 50000 0  750000 50000 0  800000 50000 0  850000 50000 0  900000 50000 0  950000 50000 0  1000000 50000 0  0 100000 0  50000 100000 0  100000 100000 0  150000 100000 0  200000 100000 0  250000 100000 0  300000 100000 0  350000 100000 0  400000 100000 0  450000 100000 0  500000 100000 0  550000 100000 0  600000 100000 0  650000 100000 0  700000 100000 0  750000 100000 0  800000 100000 0  850000 100000 0  900000 100000 0  950000 100000 0  1000000 100000 0  0 150000 0  50000 150000 0  100000 150000 0  150000 150000 0  200000 150000 0  250000 150000 0  300000 150000 0  350000 150000 0  400000 150000 0  450000 150000 0  500000 150000 0  550000 150000 0  600000 150000 0  650000 150000 0  700000 150000 0  750000 150000 0  800000 150000 0  850000 150000 0  900000 150000 0  950000 150000 0  1000000 150000 0  0 200000 0  50000 200000 0  100000 200000 0  150000 200000 0  200000 200000 0  250000 200000 0  300000 200000 0  350000 200000 0  400000 200000 0  450000 200000 0  500000 200000 0  550000 200000 0  600000 200000 0  650000 200000 0  700000 200000 0  750000 200000 0  800000 200000 0  850000 200000 0  900000 200000 0  950000 200000 0  1000000 200000 0  0 250000 0  50000 250000 0  100000 250000 0  150000 250000 0  200000 250000 0  250000 250000 0  300000 250000 0  350000 250000 0  400000 250000 0  450000 250000 0  500000 250000 0  550000 250000 0  600000 250000 0  650000 250000 0  700000 250000 0  750000 250000 0  800000 250000 0  850000 250000 0  900000 250000 0  950000 250000 0  1000000 250000 0  0 300000 0  50000 300000 0  100000 300000 0  150000 300000 0  200000 300000 0  250000 300000 0  300000 300000 0  350000 300000 0  400000 300000 0  450000 300000 0  500000 300000 0  550000 300000 0  600000 300000 0  650000 300000 0  700000 300000 0  750000 300000 0  800000 300000 0  850000 300000 0  900000 300000 0  950000 300000 0  1000000 300000 0  0 350000 0  50000 350000 0  100000 350000 0  150000 350000 0  200000 350000 0  250000 350000 0  300000 350000 0  350000 350000 0  400000 350000 0  450000 350000 0  500000 350000 0  550000 350000 0  600000 350000 0  650000 350000 0  700000 350000 0  750000 350000 0  800000 350000 0  850000 350000 0  900000 350000 0  950000 350000 0  1000000 350000 0  0 400000 0  50000 400000 0  100000 400000 0  150000 400000 0  200000 400000 0  250000 400000 0  300000 400000 0  350000 400000 0  400000 400000 0  450000 400000 0  500000 400000 0  550000 400000 0  600000 400000 0  650000 400000 0  700000 400000 0  750000 400000 0  800000 400000 0  850000 400000 0  900000 400000 0  950000 400000 0  1000000 400000 0  0 450000 0  50000 450000 0  100000 450000 0  150000 450000 0  200000 450000 0  250000 450000 0  300000 450000 0  350000 450000 0  400000 450000 0  450000 450000 0  500000 450000 0  550000 450000 0  600000 450000 0  650000 450000 0  700000 450000 0  750000 450000 0  800000 450000 0  850000 450000 0  900000 450000 0  950000 450000 0  1000000 450000 0  0 500000 0  50000 500000 0  100000 500000 0  150000 500000 0  200000 500000 0  250000 500000 0  300000 500000 0  350000 500000 0  400000 500000 0  450000 500000 0  500000 500000 0  550000 500000 0  600000 500000 0  650000 500000 0  700000 500000 0  750000 500000 0  800000 500000 0  850000 500000 0  900000 500000 0  950000 500000 0  1000000 500000 0  0 550000 0  50000 550000 0  100000 550000 0  150000 550000 0  200000 550000 0  250000 550000 0  300000 550000 0  350000 550000 0  400000 550000 0  450000 550000 0  500000 550000 0  550000 550000 0  600000 550000 0  650000 550000 0  700000 550000 0  750000 550000 0  800000 550000 0  850000 550000 0  900000 550000 0  950000 550000 0  1000000 550000 0  0 600000 0  50000 600000 0  100000 600000 0  150000 600000 0  200000 600000 0  250000 600000 0  300000 600000 0  350000 600000 0  400000 600000 0  450000 600000 0  500000 600000 0  550000 600000 0  600000 600000 0  650000 600000 0  700000 600000 0  750000 600000 0  800000 600000 0  850000 600000 0  900000 600000 0  950000 600000 0  1000000 600000 0  0 650000 0  50000 650000 0  100000 650000 0  150000 650000 0  200000 650000 0  250000 650000 0  300000 650000 0  350000 650000 0  400000 650000 0  450000 650000 0  500000 650000 0  550000 650000 0  600000 650000 0  650000 650000 0  700000 650000 0  750000 650000 0  800000 650000 0  850000 650000 0  900000 650000 0  950000 650000 0  1000000 650000 0  0 700000 0  50000 700000 0  100000 700000 0  150000 700000 0  200000 700000 0  250000 700000 0  300000 700000 0  350000 700000 0  400000 700000 0  450000 700000 0  500000 700000 0  550000 700000 0  600000 700000 0  650000 700000 0  700000 700000 0  750000 700000 0  800000 700000 0  850000 700000 0  900000 700000 0  950000 700000 0  1000000 700000 0  0 750000 0  50000 750000 0  100000 750000 0  150000 750000 0  200000 750000 0  250000 750000 0  300000 750000 0  350000 750000 0  400000 750000 0  450000 750000 0  500000 750000 0  550000 750000 0  600000 750000 0  650000 750000 0  700000 750000 0  750000 750000 0  800000 750000 0  850000 750000 0  900000 750000 0  950000 750000 0  1000000 750000 0  0 800000 0  50000 800000 0  100000 800000 0  150000 800000 0  200000 800000 0  250000 800000 0  300000 800000 0  350000 800000 0  400000 800000 0  450000 800000 0  500000 800000 0  550000 800000 0  600000 800000 0  650000 800000 0  700000 800000 0  750000 800000 0  800000 800000 0  850000 800000 0  900000 800000 0  950000 800000 0  1000000 800000 0  0 850000 0  50000 850000 0  100000 850000 0  150000 850000 0  200000 850000 0  250000 850000 0  300000 850000 0  350000 850000 0  400000 850000 0  450000 850000 0  500000 850000 0  550000 850000 0  600000 850000 0  650000 850000 0  700000 850000 0  750000 850000 0  800000 850000 0  850000 850000 0  900000 850000 0  950000 850000 0  1000000 850000 0  0 900000 0  50000 900000 0  100000 900000 0  150000 900000 0  200000 900000 0  250000 900000 0  300000 900000 0  350000 900000 0  400000 900000 0  450000 900000 0  500000 900000 0  550000 900000 0  600000 900000 0  650000 900000 0  700000 900000 0  750000 900000 0  800000 900000 0  850000 900000 0  900000 900000 0  950000 900000 0  1000000 900000 0  0 950000 0  50000 950000 0  100000 950000 0  150000 950000 0  200000 950000 0  250000 950000 0  300000 950000 0  350000 950000 0  400000 950000 0  450000 950000 0  500000 950000 0  550000 950000 0  600000 950000 0  650000 950000 0  700000 950000 0  750000 950000 0  800000 950000 0  850000 950000 0  900000 950000 0  950000 950000 0  1000000 950000 0  0 1000000 0  50000 1000000 0  100000 1000000 0  150000 1000000 0  200000 1000000 0  250000 1000000 0  300000 1000000 0  350000 1000000 0  400000 1000000 0  450000 1000000 0  500000 1000000 0  550000 1000000 0  600000 1000000 0  650000 1000000 0  700000 1000000 0  750000 1000000 0  800000 1000000 0  850000 1000000 0  900000 1000000 0  950000 1000000 0  1000000 1000000 0  0 1050000 0  50000 1050000 0  100000 1050000 0  150000 1050000 0  200000 1050000 0  250000 1050000 0  300000 1050000 0  350000 1050000 0  400000 1050000 0  450000 1050000 0  500000 1050000 0  550000 1050000 0  600000 1050000 0  650000 1050000 0  700000 1050000 0  750000 1050000 0  800000 1050000 0  850000 1050000 0  900000 1050000 0  950000 1050000 0  1000000 1050000 0  0 1100000 0  50000 1100000 0  100000 1100000 0  150000 1100000 0  200000 1100000 0  250000 1100000 0  300000 1100000 0  350000 1100000 0  400000 1100000 0  450000 1100000 0  500000 1100000 0  550000 1100000 0  600000 1100000 0  650000 1100000 0  700000 1100000 0  750000 1100000 0  800000 1100000 0  850000 1100000 0  900000 1100000 0  950000 1100000 0  1000000 1100000 0  0 1150000 0  50000 1150000 0  100000 1150000 0  150000 1150000 0  200000 1150000 0  250000 1150000 0  300000 1150000 0  350000 1150000 0  400000 1150000 0  450000 1150000 0  500000 1150000 0  550000 1150000 0  600000 1150000 0  650000 1150000 0  700000 1150000 0  750000 1150000 0  800000 1150000 0  850000 1150000 0  900000 1150000 0  950000 1150000 0  1000000 1150000 0  0 1200000 0  50000 1200000 0  100000 1200000 0  150000 1200000 0  200000 1200000 0  250000 1200000 0  300000 1200000 0  350000 1200000 0  400000 1200000 0  450000 1200000 0  500000 1200000 0  550000 1200000 0  600000 1200000 0  650000 1200000 0  700000 1200000 0  750000 1200000 0  800000 1200000 0  850000 1200000 0  900000 1200000 0  950000 1200000 0  1000000 1200000 0  0 1250000 0  50000 1250000 0  100000 1250000 0  150000 1250000 0  200000 1250000 0  250000 1250000 0  300000 1250000 0  350000 1250000 0  400000 1250000 0  450000 1250000 0  500000 1250000 0  550000 1250000 0  600000 1250000 0  650000 1250000 0  700000 1250000 0  750000 1250000 0  800000 1250000 0  850000 1250000 0  900000 1250000 0  950000 1250000 0  1000000 1250000 0  0 1300000 0  50000 1300000 0  100000 1300000 0  150000 1300000 0  200000 1300000 0  250000 1300000 0  300000 1300000 0  350000 1300000 0  400000 1300000 0  450000 1300000 0  500000 1300000 0  550000 1300000 0  600000 1300000 0  650000 1300000 0  700000 1300000 0  750000 1300000 0  800000 1300000 0  850000 1300000 0  900000 1300000 0  950000 1300000 0  1000000 1300000 0  0 1350000 0  50000 1350000 0  100000 1350000 0  150000 1350000 0  200000 1350000 0  250000 1350000 0  300000 1350000 0  350000 1350000 0  400000 1350000 0  450000 1350000 0  500000 1350000 0  550000 1350000 0  600000 1350000 0  650000 1350000 0  700000 135
[...]
<PointData  Scalars="f_6001"> 
<DataArray  type="Float64"  Name="f_6001"  format="ascii">1.0606716548218162e-01  1.1176157922401726e-01  1.1436502599199233e-01  1.1571147080792338e-01  1.1666140763690230e-01  1.1741936043875698e-01  1.1806580291823765e-01  1.1864278779311832e-01  1.1917604220376382e-01  1.1968332713487337e-01  1.2017838952115040e-01  1.2067325324495531e-01  1.2117990893358696e-01  1.2171199275988771e-01  1.2228703989849693e-01  1.2293035493598961e-01  1.2368314986152865e-01  1.2462343726558270e-01  1.2594629801303373e-01  1.2856869736592494e-01  1.3663511914997298e-01  1.1243034795198650e-01  1.1346141771695124e-01  1.1470033211682977e-01  1.1583323936002361e-01  1.1672549751502420e-01  1.1745832079177804e-01  1.1809079592638896e-01  1.1865883726368569e-01  1.1918573982293629e-01  1.1968804013818682e-01  1.2017873597547943e-01  1.2066928908149475e-01  1.2117115157699118e-01  1.2169730114458509e-01  1.2226429104560926e-01  1.2289565627229559e-01  1.2362843160730129e-01  1.2452654683158762e-01  1.2570539859888485e-01  1.2729864187472648e-01  1.2830114844203019e-01  1.1449835997408252e-01  1.1478113692850742e-01  1.1547831701729148e-01  1.1623868384282499e-01  1.1695527760240408e-01  1.1759955280797962e-01  1.1818116765384974e-01  1.1871666403126989e-01  1.1922058534659168e-01  1.1970490261551350e-01  1.2017983971646543e-01  1.2065478511571633e-01  1.2113916127138567e-01  1.2164332040260029e-01  1.2217955779814152e-01  1.2276322606985096e-01  1.2341334566385952e-01  1.2414947241619577e-01  1.2497011640338684e-01  1.2575365864108984e-01  1.2593599308926384e-01  1.1567271364926252e-01  1.1579558361867300e-01  1.1619739907930798e-01  1.1671817118892701e-01  1.1726852382867882e-01  1.1780551093086389e-01  1.1831783004706360e-01  1.1880593957543381e-01  1.1927492259422734e-01  1.1973112262733791e-01  1.2018102597273345e-01  1.2063106998851135e-01  1.2108775085984677e-01  1.2155776136466986e-01  1.2204791920626612e-01  1.2256439343353706e-01  1.2310996557607241e-01  1.2367616306363208e-01  1.2422349329262823e-01  1.2464304955653274e-01  1.2473130003075404e-01  1.1648355479732113e-01  1.1655517386435343e-01  1.1680933698424091e-01  1.1717629086167812e-01  1.1759788507574186e-01  1.1803839474108331e-01  1.1847964160853956e-01  1.1891463421605239e-01  1.1934212155280190e-01  1.1976366304710667e-01  1.2018209368002403e-01  1.2060074572951741e-01  1.2102301141817039e-01  1.2145192624115111e-01  1.2188945048122969e-01  1.2233496956897701e-01  1.2278220184917171e-01  1.2321335562628816e-01  1.2359013057592930e-01  1.2384717782758206e-01  1.2390946655659524e-01  1.1708925833542273e-01  1.1713799880773598e-01  1.1731360009529947e-01  1.1758255664985061e-01  1.1791077956788966e-01  1.1827181229802985e-01  1.1864851273745571e-01  1.1903128836264754e-01  1.1941548447674104e-01  1.1979940382271628e-01  1.2018295281823259e-01  1.2056674846110242e-01  1.2095145032808877e-01  1.2133709338909555e-01  1.2172218389391845e-01  1.2210228244569322e-01  1.2246780194542113e-01  1.2280103971123042e-01  1.2307367733297030e-01  1.2324898126244603e-01  1.2329502669376413e-01  1.1755987773737063e-01  1.1759584439408381e-01  1.1772552688055692e-01  1.1793104373582596e-01  1.1819219061107264e-01  1.1849052620987345e-01  1.1881197817123387e-01  1.1914694231118436e-01  1.1948936557520703e-01  1.1983562596753788e-01  1.2018357331234146e-01  1.2053175020163205e-01  1.2087871948693037e-01  1.2122238434049408e-01  1.2155917896215970e-01  1.2188303449545149e-01  1.2218413864127664e-01  1.2244783083679088e-01  1.2265465624075024e-01  1.2278346493882134e-01  1.2281840252518990e-01  1.1793295366744813e-01  1.1796087527213431e-01  1.1806152992632818e-01  1.1822444981312379e-01  1.1843711057797206e-01  1.1868676886529970e-01  1.1896242207150519e-01  1.1925548236023417e-01  1.1955962326074029e-01  1.1987026353903607e-01  1.2018396746985527e-01  1.2049786175319810e-01  1.2080907695443110e-01  1.2111418086840375e-01  1.2140856929735966e-01  1.2168581917002186e-01  1.2193711235884443e-01  1.2215103300586229e-01  1.2231429951976015e-01  1.2241408237778818e-01  1.2244146212862637e-01  1.1823124290919393e-01  1.1825375695899426e-01  1.1833495803488658e-01  1.1846822015569519e-01  1.1864536249023408e-01  1.1885739219217137e-01  1.1909578982442662e-01  1.1935319409650035e-01  1.1962354769072038e-01  1.1990191937730565e-01  1.2018417132986095e-01  1.2046656892084311e-01  1.2074537248050898e-01  1.2101642352735986e-01  1.2127473827804303e-01  1.2151415129441731e-01  1.2172711462264818e-01  1.2190484365287477e-01  1.2203806186478805e-01  1.2211851334851480e-01  1.2214067668238301e-01  1.1846965294169727e-01  1.1848838675062849e-01  1.1855601317693164e-01  1.1866804700333934e-01  1.1881884732871641e-01  1.1900184329722954e-01  1.1921035208269225e-01  1.1943812413849667e-01  1.1967957081424928e-01  1.1992975384626754e-01  1.2018422809383469e-01  1.2043880722555184e-01  1.2068929658272985e-01  1.2093122303520322e-01  1.2115959261608708e-01  1.2136872357250092e-01  1.2155223122246941e-01  1.2170326739066994e-01  1.2181511084424675e-01  1.2188212378568841e-01  1.2190060827697181e-01  1.1865843251068355e-01  1.1867446397995592e-01  1.1873239048147226e-01  1.1882898813743530e-01  1.1896014851314539e-01  1.1912086536877678e-01  1.1930575906740658e-01  1.1950948003228108e-01  1.1972693188282735e-01  1.1995333545527809e-01  1.2018417806896378e-01  1.2041509257983039e-01  1.2064170342992331e-01  1.2085947139922383e-01  1.2106356958116457e-01  1.2124883019806384e-01  1.2140981088884290e-01  1.2154103005993971e-01  1.2163740053349889e-01  1.2169483980294135e-01  1.2171068813834908e-01  1.1880482494366391e-01  1.1881891406778940e-01  1.1886986721607620e-01  1.1895523406475751e-01  1.1907185202515495e-01  1.1921572794931176e-01  1.1938238480428846e-01  1.1956715669789743e-01  1.1976538281290375e-01  1.1997250013524254e-01  1.2018405434786825e-01  1.2039565565447560e-01  1.2060290720883882e-01  1.2080133317744483e-01  1.2098633397136473e-01  1.2115319776757391e-01  1.2129719718923332e-01  1.2141379280034248e-01  1.2149894726034555e-01  1.2154952650514332e-01  1.2156348150220282e-01  1.1891399189902882e-01  1.1892670830218188e-01  1.1897273202192538e-01  1.1905009804513178e-01  1.1915623126743344e-01  1.1928778890572939e-01  1.1944090220668038e-01  1.1961139755863685e-01  1.1979496077525939e-01  1.1998723822372143e-01  1.2018388206850376e-01  1.2038055519357362e-01  1.2057291526233842e-01  1.2075659881369449e-01  1.2092722657164851e-01  1.2108045018504324e-01  1.2121205693303336e-01  1.2131814058570597e-01  1.2139533421305754e-01  1.2144108649445627e-01  1.2145370828902771e-01  1.1898955341066704e-01  1.1900135128771433e-01  1.1904407719692417e-01  1.1911606956014589e-01  1.1921510849881334e-01  1.1933825236027160e-01  1.1948202033713842e-01  1.1964256755087462e-01  1.1981582714398903e-01  1.1999761222024237e-01  1.2018367943855798e-01  1.2036976335516594e-01  1.2055159515276226e-01  1.2072492151128714e-01  1.2088553951127536e-01  1.2102936155944959e-01  1.2115251983376532e-01  1.2125151238418841e-01  1.2132338489786697e-01  1.2136593397403120e-01  1.2137767127932544e-01  1.1903390971616312e-01  1.1904517479901480e-01  1.1908599053340459e-01  1.1915487437440116e-01  1.1924979845785261e-01  1.1936803857315893e-01  1.1950632822387985e-01  1.1966100926128537e-01  1.1982816102949093e-01  1.2000370142268560e-01  1.2018345942245974e-01  1.2036322494064376e-01  1.2053878624711514e-01  1.2070596749764068e-01  1.2086067893019281e-01  1.2099899014103010e-01  1.2111723240261074e-01  1.2121212968985783e-01  1.2128095235106055e-01  1.2132168087073716e-01  1.2133291635760975e-01  1.1904842927827203e-01  1.1905951084440342e-01  1.1909967455196493e-01  1.1916752184028413e-01  1.1926108815349601e-01  1.1937771666370262e-01  1.1951420669537149e-01  1.1966695759355267e-01  1.1983209419628527e-01  1.2000556779197021e-01  1.2018323155381108e-01  1.2036089531565197e-01  1.2053436891133690e-01  1.2069950551406947e-01  1.2085225641225057e-01  1.2098874644391948e-01  1.2110537495412607e-01  1.2119894126733792e-01  1.2126678855565712e-01  1.2130695226321861e-01  1.2131803382935000e-01  1.1903354675001229e-01  1.1904478223688489e-01  1.1908551075656150e-01  1.1915433341776421e-01  1.1924923070501134e-01  1.1936747296659195e-01  1.1950578417742931e-01  1.1966049560998149e-01  1.1982767686050701e-01  1.2000323816697840e-01  1.2018300368516245e-01  1.2036276168493658e-01  1.2053830207813122e-01  1.2070545384633670e-01  1.2086013488374223e-01  1.2099842453446313e-01  1.2111666464976950e-01  1.2121158873322092e-01  1.2128047257421752e-01  1.2132128830860728e-01  1.2133255339145899e-01  1.1898879182829655e-01  1.1900052913359091e-01  1.1904307820975510e-01  1.1911495072343366e-01  1.1921394327385680e-01  1.1933710154817255e-01  1.1948092359634681e-01  1.1964154159633504e-01  1.1981486795485993e-01  1.1999669975245626e-01  1.2018278366906425e-01  1.2036885088737981e-01  1.2055063596363316e-01  1.2072389555674755e-01  1.2088444277048374e-01  1.2102821074735058e-01  1.2115135460880887e-01  1.2125039354747630e-01  1.2132238591069802e-01  1.2136511181990785e-01  1.2137690969695511e-01  1.1891275481859447e-01  1.1892537661316589e-01  1.1897112889456463e-01  1.1904832252191616e-01  1.1915440617458883e-01  1.1928601292257898e-01  1.1943923653597374e-01  1.1960986429392778e-01  1.1979354784528387e-01  1.1998590791404866e-01  1.2018258103911859e-01  1.2037922488390088e-01  1.2057150233236287e-01  1.2075506554898537e-01  1.2092556090094186e-01  1.2107867420189289e-01  1.2121023184018884e-01  1.2131636506249054e-01  1.2139373108569687e-01  1.2143975480544036e-01  1.2145247120859343e-01  1.1880298160541948e-01  1.1881693660247897e-01  1.1886751584727673e-01  1.1895267030727980e-01  1.1906926591838900e-01  1.1921326534004839e-01  1.1938012913625765e-01  1.1956512993017754e-01  1.1976355589878356e-01  1.1997080745314677e-01  1.2018240875975417e-01  1.2039396297237989e-01  1.2060108029471862e-01  1.2079930640972490e-01  1.2098407830333389e-01  1.2115073515831060e-01  1.2129461108246745e-01  1.2141122904286487e-01  1.2149659589154616e-01  1.2154754903983295e-01  1.2156163816395844e-01  1.1865577496927340e-01  1.1867162330468112e-01  1.1872906257412358e-01  1.1882543304768274e-01  1.1895665221877960e-01  1.1911763290955864e-01  1.1930289352645795e-01  1.1950699170839868e-01  1.1972475967769924e-01  1.1995137052779214e-01  1.2018228503865877e-01  1.2041312765234446e-01  1.2063953122479520e-01  1.2085698307534148e-01  1.2106070404021599e-01  1.2124559773884580e-01  1.2140631459447718e-01  1.2153747497018724e-01  1.2163407262615029e-01  1.2169199912766658e-01  1.2170803059693897e-01  1.1846585483065089e-01  1.1848433932193425e-01  1.1855135226337593e-01  1.1866319571695275e-01  1.1881423188515328e-01  1.1899773953512176e-01  1.1920687049153558e-01  1.1943524007241946e-01  1.1967716652489285e-01  1.1992765588207088e-01  1.2018223501378804e-01  1.2043670926135518e-01  1.2068689229337348e-01  1.2092833896912611e-01  1.2115611102493053e-01  1.2136461981039320e-01  1.2154761577890633e-01  1.2169841610428338e-01  1.2181044993069105e-01  1.2187807635699416e-01  1.2189681016592542e-01  1.1822578642523988e-01  1.1824794975910810e-01  1.1832840124283485e-01  1.1846161945474812e-01  1.1863934848497470e-01  1.1885231181320559e-01  1.1909172482957987e-01  1.1935003958026305e-01  1.1962109062711394e-01  1.1989989418677983e-01  1.2018229177776200e-01  1.2046454373031731e-01  1.2074291541690263e-01  1.2101326901112265e-01  1.2127067328319635e-01  1.2150907091545157e-01  1.2172110061738883e-01  1.2189824295192772e-01  1.2203150507273625e-01  1.2211270614862854e-01  1.2213522019842890e-01  1.1792500097899676e-01  1.1795238072983497e-01  1.1805216358786298e-01  1.1821543010176078e-01  1.1842935074877868e-01  1.1868064393760125e-01  1.1895789381026345e-01  1.1925228223921938e-01  1.1955738615319206e-01  1.1986860135442506e-01  1.2018249563776789e-01  1.2049619956858711e-01  1.2080683984688295e-01  1.2111098074738905e-01  1.2140404103611797e-01  1.2167969424232339e-01  1.2192935252965104e-01  1.2214201329449928e-01  1.2230493318129487e-01  1.2240558783548869e-01  1.2243350944017486e-01  1.1754806058243353e-01  1.1758299816880208e-01  1.1771180686687319e-01  1.1791863227083252e-01  1.1818232446634676e-01  1.1848342861217193e-01  1.1880728414546371e-01  1.1914407876712935e-01  1.1948774362069306e-01  1.1983471290599136e-01  1.2018288979528194e-01  1.2053083714008556e-01  1.2087709753241643e-01  1.2121952079643905e-01  1.2155448493638953e-01  1.2187593689774991e-01  1.2217427249655068e-01  1.2243541937179732e-01  1.2264093622706633e-01  1.2277061871353939e-01  1.2280658537025257e-01  1.1707143641385961e-01  1.1711748184517773e-01  1.1729278577465346e-01  1.1756542339639331e-01  1.1789866116220257e-01  1.1826418066193045e-01  1.1864427921370523e-01  1.1902936971852818e-01  1.1941501277953495e-01  1.1979971464652128e-01  1.2018351028939112e-01  1.2056705928490744e-01  1.2095097863088269e-01  1.2133517474497614e-01  1.2171795037016792e-01  1.2209465080959375e-01  1.2245568353973389e-01  1.2278390645777293e-01  1.2305286301232402e-01  1.2322846429988746e-01  1.2327720477220068e-01  1.1645699655102885e-01  1.1651928528004202e-01  1.1677633253169478e-01  1.1715310748133589e-01  1.1758426125845231e-01  1.1803149353864700e-01  1.1847701262639432e-01  1.1891453686647292e-01  1.1934345168945362e-01  1.1976571737810655e-01  1.2018436942759997e-01  1.2060280006051734e-01  1.2102434155482208e-01  1.2145182889157154e-01  1.2188682149908434e-01  1.2232806836654056e-01  1.2276857803188194e-01  1.2319017224594564e-01  1.2355712612338279e-01  1.2381128924327020e-01  1.2388290831030253e-01  1.1563516307687041e-01  1.1572341355109171e-01  1.1614296981499624e-01  1.1669030004399236e-01  1.1725649753155197e-01  1.1780206967408727e-01  1.1831854390135819e-01  1.1880870174295448e-01  1.1927871224777752e-01  1.1973539311911294e-01  1.2018543713489083e-01  1.2063534048028636e-01  1.2109154051339691e-01  1.2156052353219042e-01  1.2204863306056063e-01  1.2256095217676025e-01  1.2309793927894523e-01  1.2364829191869699e-01  1.2416906402831594e-01  1.2457087948895086e-01  1.2469374945836136e-01  1.1443047001836108e-01  1.1461280446653500e-01  1.1539634670423801e-01  1.1621699069142905e-01  1.1695311744376524e-01  1.1760323703777371e-01  1.1818690530948314e-01  1.1872314270502433e-01  1.1922730183623891e-01  1.1971167799190825e-01  1.2018662339115915e-01  1.2066156049211105e-01  1.2114587776103289e-01  1.2164979907635465e-01  1.2218529545377477e-01  1.2276691029964480e-01  1.2341118550522026e-01  1.2412777926479927e-01  1.2488814609033271e-01  1.2558532617911675e-01  1.2586810313354163e-01  1.1206531466559524e-01  1.1306782123289874e-01  1.1466106450874028e-01  1.1583991627603747e-01  1.1673803150032376e-01  1.1747080683532941e-01  1.1810217206201568e-01  1.1866916196303982e-01  1.1919531153063369e-01  1.1969717402613014e-01  1.2018772713214546e-01  1.2067842296943807e-01  1.2118072328468857e-01  1.2170762584393913e-01  1.2227566718123585e-01  1.2290814231584671e-01  1.2364096559260046e-01  1.2453322374760094e-01  1.2566613099079468e-01  1.2690504539067318e-01  1.2793611515563805e-01  1.0373134395765291e-01  1.1179776574170028e-01  1.1442016509459152e-01  1.1574302584204255e-01  1.1668331324609657e-01  1.1743610817163554e-01  1.1807942320912820e-01  1.1865447034773734e-01  1.1918655417403810e-01  1.1969320986266975e-01  1.2018807358647467e-01  1.2068313597275165e-01  1.2119042090386120e-01  1.2172367531450667e-01  1.2230066018938732e-01  1.2294710266886794e-01  1.2370505547072252e-01  1.2465499229970134e-01  1.2600143711563228e-01  1.2860488388360727e-01  1.3429929762544335e-01  </DataArray> 
</PointData> 
</Piece>
</UnstructuredGrid>
</VTKFile>