<?xml version="1.0"?>
<VTKFile type="UnstructuredGrid"  version="0.1"  >
<UnstructuredGrid>
<Piece  NumberOfPoints="651" NumberOfCells="1200">
<Points>
<DataArray  type="Float64"  NumberOfComponents="3"  format="ascii">0 0 0  50000 0 0  100000 0 0  150000 0 0  200000 0 0  250000 0 0  300000 0 0  350000 0 0  400000 0 0  450000 0 0  500000 0 0  550000 0 0  600000 0 0  650000 0 0  700000 0 0  750000 0 0  800000 0 0  850000 0 0  900000 0 0  950000 0 0  1000000 0 0  0 50000 0  50000 50000 0  100000 50000 0  150000 50000 0  200000 50000 0  250000 50000 0  300000 50000 0  350000 50000 0  400000 50000 0  450000 50000 0  500000 50000 0  550000 50000 0  600000 50000 0  650000 50000 0  700000 50000 0  750000 50000 0  800000 50000 0  850000 50000 0  900000 50000 0  950000 50000 0  1000000 50000 0  0 100000 0  50000 100000 0  100000 100000 0  150000 100000 0  200000 100000 0  250000 100000 0  300000 100000 0  350000 100000 0  400000 100000 0  450000 100000 0  500000 100000 0  550000 100000 0  600000 100000 0  650000 100000 0  700000 100000 0  750000 100000 0  800000 100000 0  850000 100000 0  900000 100000 0  950000 100000 0  1000000 100000 0  0 150000 0  50000 150000 0  100000 150000 0  150000 150000 0  200000 150000 0  250000 150000 0  300000 150000 0  350000 150000 0  400000 150000 0  450000 150000 0  500000 150000 0  550000 150000 0  600000 150000 0  650000 150000 0  700000 150000 0  750000 150000 0  800000 150000 0  850000 150000 0  900000 150000 0  950000 150000 0  1000000 150000 0  0 200000 0  50000 200000 0  100000 200000 0  150000 200000 0  200000 200000 0  250000 200000 0  300000 200000 0  350000 200000 0  400000 200000 0  450000 200000 0  500000 200000 0  550000 200000 0  600000 200000 0  650000 200000 0  700000 200000 0  750000 200000 0  800000 200000 0  850000 200000 0  900000 200000 0  950000 200000 0  1000000 200000 0  0 250000 0  50000 250000 0  100000 250000 0  150000 250000 0  200000 250000 0  250000 250000 0  300000 250000 0  350000 250000 0  400000 250000 0  450000 250000 0  500000 250000 0  550000 250000 0  600000 250000 0  650000 250000 0  700000 250000 0  750000 250000 0  800000 250000 0  850000 250000 0  900000 250000 0  950000 250000 0  1000000 250000 0  0 300000 0  50000 300000 0  100000 300000 0  150000 300000 0  200000 300000 0  250000 300000 0  300000 300000 0  350000 300000 0  400000 300000 0  450000 300000 0  500000 300000 0  550000 300000 0  600000 300000 0  650000 300000 0  700000 300000 0  750000 300000 0  800000 300000 0  850000 300000 0  900000 300000 0  950000 300000 0  1000000 300000 0  0 350000 0  50000 350000 0  100000 350000 0  150000 350000 0  200000 350000 0  250000 350000 0  300000 350000 0  350000 350000 0  400000 350000 0  450000 350000 0  500000 350000 0  550000 350000 0  600000 350000 0  650000 350000 0  700000 350000 0  750000 350000 0  800000 350000 0  850000 350000 0  900000 350000 0  950000 350000 0  1000000 350000 0  0 400000 0  50000 400000 0  100000 400000 0  150000 400000 0  200000 400000 0  250000 400000 0  300000 400000 0  350000 400000 0  400000 400000 0  450000 400000 0  500000 400000 0  550000 400000 0  600000 400000 0  650000 400000 0  700000 400000 0  750000 400000 0  800000 400000 0  850000 400000 0  900000 400000 0  950000 400000 0  1000000 400000 0  0 450000 0  50000 450000 0  100000 450000 0  150000 450000 0  200000 450000 0  250000 450000 0  300000 450000 0  350000 450000 0  400000 450000 0  450000 450000 0  500000 450000 0  550000 450000 0  600000 450000 0  650000 450000 0  700000 450000 0  750000 450000 0  800000 450000 0  850000 450000 0  900000 450000 0  950000 450000 0  1000000 450000 0  0 500000 0  50000 500000 0  100000 500000 0  150000 500000 0  200000 500000 0  250000 500000 0  300000 500000 0  350000 500000 0  400000 500000 0  450000 500000 0  500000 500000 0  550000 500000 0  600000 500000 0  650000 500000 0  700000 500000 0  750000 500000 0  800000 500000 0  850000 500000 0  900000 500000 0  950000 500000 0  1000000 500000 0  0 550000 0  50000 550000 0  100000 550000 0  150000 550000 0  200000 550000 0  250000 550000 0  300000 550000 0  350000 550000 0  400000 550000 0  450000 550000 0  500000 550000 0  550000 550000 0  600000 550000 0  650000 550000 0  700000 550000 0  750000 550000 0  800000 550000 0  850000 550000 0  900000 550000 0  950000 550000 0  1000000 550000 0  0 600000 0  50000 600000 0  100000 600000 0  150000 600000 0  200000 600000 0  250000 600000 0  300000 600000 0  350000 600000 0  400000 600000 0  450000 600000 0  500000 600000 0  550000 600000 0  600000 600000 0  650000 600000 0  700000 600000 0  750000 600000 0  800000 600000 0  850000 600000 0  900000 600000 0  950000 600000 0  1000000 600000 0  0 650000 0  50000 650000 0  100000 650000 0  150000 650000 0  200000 650000 0  250000 650000 0  300000 650000 0  350000 650000 0  400000 650000 0  450000 650000 0  500000 650000 0  550000 650000 0  600000 650000 0  650000 650000 0  700000 650000 0  750000 650000 0  800000 650000 0  850000 650000 0  900000 650000 0  950000 650000 0  1000000 650000 0  0 700000 0  50000 700000 0  100000 700000 0  150000 700000 0  200000 700000 0  250000 700000 0  300000 700000 0  350000 700000 0  400000 700000 0  450000 700000 0  500000 700000 0  550000 700000 0  600000 700000 0  650000 700000 0  700000 700000 0  750000 700000 0  800000 700000 0  850000 700000 0  900000 700000 0  950000 700000 0  1000000 700000 0  0 750000 0  50000 750000 0  100000 750000 0  150000 750000 0  200000 750000 0  250000 750000 0  300000 750000 0  350000 750000 0  400000 750000 0  450000 750000 0  500000 750000 0  550000 750000 0  600000 750000 0  650000 750000 0  700000 750000 0  750000 750000 0  800000 750000 0  850000 750000 0  900000 750000 0  950000 750000 0  1000000 750000 0  0 800000 0  50000 800000 0  100000 800000 0  150000 800000 0  200000 800000 0  250000 800000 0  300000 800000 0  350000 800000 0  400000 800000 0  450000 800000 0  500000 800000 0  550000 800000 0  600000 800000 0  650000 800000 0  700000 800000 0  750000 800000 0  800000 800000 0  850000 800000 0  900000 800000 0  950000 800000 0  1000000 800000 0  0 850000 0  50000 850000 0  100000 850000 0  150000 850000 0  200000 850000 0  250000 850000 0  300000 850000 0  350000 850000 0  400000 850000 0  450000 850000 0  500000 850000 0  550000 850000 0  600000 850000 0  650000 850000 0  700000 850000 0  750000 850000 0  800000 850000 0  850000 850000 0  900000 850000 0  950000 850000 0  1000000 850000 0  0 900000 0  50000 900000 0  100000 900000 0  150000 900000 0  200000 900000 0  250000 900000 0  300000 900000 0  350000 900000 0  400000 900000 0  450000 900000 0  500000 900000 0  550000 900000 0  600000 900000 0  650000 900000 0  700000 900000 0  750000 900000 0  800000 900000 0  850000 900000 0  900000 900000 0  950000 900000 0  1000000 900000 0  0 950000 0  50000 950000 0  100000 950000 0  150000 950000 0  200000 950000 0  250000 950000 0  300000 950000 0  350000 950000 0  400000 950000 0  450000 950000 0  500000 950000 0  550000 950000 0  600000 950000 0  650000 950000 0  700000 950000 0  750000 950000 0  800000 950000 0  850000 950000 0  900000 950000 0  950000 950000 0  1000000 950000 0  0 1000000 0  50000 1000000 0  100000 1000000 0  150000 1000000 0  200000 1000000 0  250000 1000000 0  300000 1000000 0  350000 1000000 0  400000 1000000 0  450000 1000000 0  500000 1000000 0  550000 1000000 0  600000 1000000 0  650000 1000000 0  700000 1000000 0  750000 1000000 0  800000 1000000 0  850000 1000000 0  900000 1000000 0  950000 1000000 0  1000000 1000000 0  0 1050000 0  50000 1050000 0  100000 1050000 0  150000 1050000 0  200000 1050000 0  250000 1050000 0  300000 1050000 0  350000 1050000 0  400000 1050000 0  450000 1050000 0  500000 1050000 0  550000 1050000 0  600000 1050000 0  650000 1050000 0  700000 1050000 0  750000 1050000 0  800000 1050000 0  850000 1050000 0  900000 1050000 0  950000 1050000 0  1000000 1050000 0  0 1100000 0  50000 1100000 0  100000 1100000 0  150000 1100000 0  200000 1100000 0  250000 1100000 0  300000 1100000 0  350000 1100000 0  400000 1100000 0  450000 1100000 0  500000 1100000 0  550000 1100000 0  600000 1100000 0  650000 1100000 0  700000 1100000 0  750000 1100000 0  800000 1100000 0  850000 1100000 0  900000 1100000 0  950000 1100000 0  1000000 1100000 0  0 1150000 0  50000 1150000 0  100000 1150000 0  150000 1150000 0  200000 1150000 0  250000 1150000 0  300000 1150000 0  350000 1150000 0  400000 1150000 0  450000 1150000 0  500000 1150000 0  550000 1150000 0  600000 1150000 0  650000 1150000 0  700000 1150000 0  750000 1150000 0  800000 1150000 0  850000 1150000 0  900000 1150000 0  950000 1150000 0  1000000 1150000 0  0 1200000 0  50000 1200000 0  100000 1200000 0  150000 1200000 0  200000 1200000 0  250000 1200000 0  300000 1200000 0  350000 1200000 0  400000 1200000 0  450000 1200000 0  500000 1200000 0  550000 1200000 0  600000 1200000 0  650000 1200000 0  700000 1200000 0  750000 1200000 0  800000 1200000 0  850000 1200000 0  900000 1200000 0  950000 1200000 0  1000000 1200000 0  0 1250000 0  50000 1250000 0  100000 1250000 0  150000 1250000 0  200000 1250000 0  250000 1250000 0  300000 1250000 0  350000 1250000 0  400000 1250000 0  450000 1250000 0  500000 1250000 0  550000 1250000 0  600000 1250000 0  650000 1250000 0  700000 1250000 0  750000 1250000 0  800000 1250000 0  850000 1250000 0  900000 1250000 0  950000 1250000 0  1000000 1250000 0  0 1300000 0  50000 1300000 0  100000 1300000 0  150000 1300000 0  200000 1300000 0  250000 1300000 0  300000 1300000 0  350000 1300000 0  400000 1300000 0  450000 1300000 0  500000 1300000 0  550000 1300000 0  600000 1300000 0  650000 1300000 0  700000 1300000 0  750000 1300000 0  800000 1300000 0  850000 1300000 0  900000 1300000 0  950000 1300000 0  1000000 1300000 0  0 1350000 0  50000 1350000 0  100000 1350000 0  150000 1350000 0  200000 1350000 0  250000 1350000 0  300000 1350000 0  350000 1350000 0  400000 1350000 0  450000 1350000 0  500000 1350000 0  550000 1350000 0  600000 1350000 0  650000 1350000 0  700000 135
[...]
<PointData  Scalars="f_6001"> 
<DataArray  type="Float64"  Name="f_6001"  format="ascii">1.0534708544651829e-01  1.1243263393585802e-01  1.1503338961709857e-01  1.1624787175079621e-01  1.1714797712156239e-01  1.1788908209329575e-01  1.1852559229947689e-01  1.1909424608406263e-01  1.1961991502007122e-01  1.2012004431791456e-01  1.2060814013236573e-01  1.2109601124291107e-01  1.2159542177085662e-01  1.2211973841923988e-01  1.2268619013933775e-01  1.2331919559698112e-01  1.2405090515926701e-01  1.2490247950108663e-01  1.2594068242744361e-01  1.2875095512512333e-01  1.4297326630896265e-01  1.1311810286475155e-01  1.1405955142767737e-01  1.1519718495279270e-01  1.1631671051517052e-01  1.1720265234666916e-01  1.1792594016974700e-01  1.1854931232547372e-01  1.1910934967634856e-01  1.1962896968065430e-01  1.2012437229179407e-01  1.2060832193727365e-01  1.2109208124559623e-01  1.2158688229302636e-01  1.2210538709204764e-01  1.2266352833196534e-01  1.2328326653209559e-01  1.2399862620549715e-01  1.2488019090328073e-01  1.2612461787175896e-01  1.2804158796573348e-01  1.2845695330953230e-01  1.1514272825939094e-01  1.1527030556708276e-01  1.1595660382954470e-01  1.1671477536391575e-01  1.1742583083816242e-01  1.1806338943783132e-01  1.1863777443858507e-01  1.1916613875118630e-01  1.1966323344799451e-01  1.2014096654142065e-01  1.2060942924092803e-01  1.2107786797195419e-01  1.2155555329380659e-01  1.2205266598513682e-01  1.2258134411347631e-01  1.2315717423763281e-01  1.2380184174510331e-01  1.2454568917818104e-01  1.2540137035458876e-01  1.2616982586674649e-01  1.2593738009369690e-01  1.1619810134335698e-01  1.1627833921590668e-01  1.1667343696591806e-01  1.1719007378146062e-01  1.1773529642683597e-01  1.1826609434447413e-01  1.1877208416943183e-01  1.1925392281646756e-01  1.1971672379014210e-01  1.2016683246278703e-01  1.2061069788442377e-01  1.2105470025578929e-01  1.2150528745012075e-01  1.2196916063482376e-01  1.2245333144417604e-01  1.2296468424245968e-01  1.2350771362285819e-01  1.2407527671160083e-01  1.2461871455377543e-01  1.2499560061358547e-01  1.2501485523167363e-01  1.1697003133170122e-01  1.1703368887562487e-01  1.1728120694512306e-01  1.1764399742840023e-01  1.1806065817879720e-01  1.1849584026418876e-01  1.1893159580172413e-01  1.1936103018033893e-01  1.1978295499952538e-01  1.2019895309194270e-01  1.2061186344056367e-01  1.2102501964598025e-01  1.2144183595503032e-01  1.2186543039117197e-01  1.2229796492663840e-01  1.2273916451715781e-01  1.2318288329494330e-01  1.2360981189703785e-01  1.2397654281751744e-01  1.2421529444418652e-01  1.2427604928493965e-01  1.1756317071062974e-01  1.1760921705018434e-01  1.1778082361765503e-01  1.1804584046053777e-01  1.1836983834677203e-01  1.1872632083778353e-01  1.1909824289594204e-01  1.1947611313823926e-01  1.1985533545495315e-01  1.2023425466056006e-01  1.2061280920138746e-01  1.2099164805044599e-01  1.2137147721789447e-01  1.2175240559485499e-01  1.2213303316107882e-01  1.2250894661300685e-01  1.2287025308661118e-01  1.2319828007466237e-01  1.2346374720206632e-01  1.2363234088346520e-01  1.2367912525295931e-01  1.1802668633333019e-01  1.1806068181481245e-01  1.1818799228834324e-01  1.1839031107002261e-01  1.1864790961541755e-01  1.1894234611415828e-01  1.1925964406564188e-01  1.1959028113082340e-01  1.1992826956203007e-01  1.2027003982834766e-01  1.2061348693150269e-01  1.2095719741444104e-01  1.2129978127778041e-01  1.2163918926728640e-01  1.2197188079497492e-01  1.2229173251237871e-01  1.2258873087420998e-01  1.2284796106129511e-01  1.2305023012543104e-01  1.2317588567951103e-01  1.2320997338671000e-01  1.1839439889918643e-01  1.1842072233822493e-01  1.1851973574235128e-01  1.1868017818604742e-01  1.1888987022453928e-01  1.1913618908028509e-01  1.1940822154027013e-01  1.1969746017932345e-01  1.1999764643212463e-01  1.2030425620937628e-01  1.2061390455303636e-01  1.2092376509160446e-01  1.2123101152171441e-01  1.2153224555998225e-01  1.2182287441053455e-01  1.2209644933629323e-01  1.2234410771824780e-01  1.2255448738189841e-01  1.2271467149924811e-01  1.2281248066207881e-01  1.2283872532924001e-01  1.1868845740950629e-01  1.1870967397996000e-01  1.1878960501896860e-01  1.1892090040776764e-01  1.1909555594571503e-01  1.1930471206108695e-01  1.1953993995894527e-01  1.1979395714327243e-01  1.2006077398243414e-01  1.2033551829543371e-01  1.2061410494494924e-01  1.2089284692274641e-01  1.2116804654528124e-01  1.2143557904470967e-01  1.2169048343720328e-01  1.2192661170985687e-01  1.2213645754769609e-01  1.2231136385504868e-01  1.2244231301820757e-01  1.2252132247856685e-01  1.2254245238760417e-01  1.1892351999815219e-01  1.1894118064797955e-01  1.1900776489919482e-01  1.1911817668932463e-01  1.1926686606447220e-01  1.1944736595354871e-01  1.1965307888924145e-01  1.1987782957295681e-01  1.2011609525843375e-01  1.2036299661466293e-01  1.2061414179555120e-01  1.2086539296475342e-01  1.2111259930580331e-01  1.2135132707935463e-01  1.2157661983422331e-01  1.2178284074725382e-01  1.2196367701315679e-01  1.2211240185044428e-01  1.2222245932407111e-01  1.2228833228692979e-01  1.2230591511674163e-01  1.1910966722736430e-01  1.1912478931725644e-01  1.1918182821243348e-01  1.1927704216921990e-01  1.1940637325340160e-01  1.1956489136032003e-01  1.1974729088205534e-01  1.1994829044312856e-01  1.2016285646783915e-01  1.2038626757932355e-01  1.2061406452341321e-01  1.2084192988058702e-01  1.2106553488094314e-01  1.2128038569522738e-01  1.2148170303185034e-01  1.2166437594961377e-01  1.2182303751791690e-01  1.2195230478803075e-01  1.2204719730682086e-01  1.2210368895856162e-01  1.2211874385560673e-01  1.1925402763196580e-01  1.1926732681333441e-01  1.1931750059107377e-01  1.1940165134327475e-01  1.1951664635872057e-01  1.1965855007829193e-01  1.1982294812372837e-01  1.2000523642014356e-01  1.2020081341406523e-01  1.2040517233654109e-01  1.2061391219998754e-01  1.2082269410715941e-01  1.2102717059995911e-01  1.2122291540246403e-01  1.2140538150930537e-01  1.2156991662757284e-01  1.2171186309216939e-01  1.2182675952479924e-01  1.2191064139705690e-01  1.2196040257519733e-01  1.2197364683505763e-01  1.1936168455005589e-01  1.1937369694581300e-01  1.1941901627855017e-01  1.1949528258154565e-01  1.1959993932426716e-01  1.1972968978232608e-01  1.1988071918890342e-01  1.2004891023251017e-01  1.2023000478347827e-01  1.2041970394533025e-01  1.2061371299550479e-01  1.2080774655985764e-01  1.2099751341995478e-01  1.2117870187964767e-01  1.2134698679729468e-01  1.2149807798297783e-01  1.2162782513899412e-01  1.2173238522416541e-01  1.2180844486347978e-01  1.2185346766638473e-01  1.2186543844508319e-01  1.1943620493187307e-01  1.1944735810268181e-01  1.1948942847361729e-01  1.1956039724106672e-01  1.1965805666275810e-01  1.1977950434276628e-01  1.1992130786186983e-01  1.2007967473849941e-01  1.2025059180141924e-01  1.2042992572456901e-01  1.2061348604974331e-01  1.2079705955689635e-01  1.2097642946686341e-01  1.2114739507816130e-01  1.2130580746818452e-01  1.2144763473421986e-01  1.2156906541522694e-01  1.2166665106943129e-01  1.2173748020079517e-01  1.2177935849128022e-01  1.2179048379949928e-01  1.1947995481764344e-01  1.1949061214476374e-01  1.1953079898197475e-01  1.1959870122151782e-01  1.1969229952224120e-01  1.1980890549583037e-01  1.1994529823105254e-01  1.2009786996161560e-01  1.2026275246274244e-01  1.2043591656464471e-01  1.2061324399133157e-01  1.2079057710178981e-01  1.2096375658455684e-01  1.2112865937715220e-01  1.2128124907574533e-01  1.2141764883925998e-01  1.2153424224128265e-01  1.2162780112213169e-01  1.2169563307517413e-01  1.2173572545545730e-01  1.2174636883048656e-01  1.1949428390918514e-01  1.1950477484110153e-01  1.1954431599561209e-01  1.1961119249404642e-01  1.1970344661563059e-01  1.1981845667928820e-01  1.1995306738960256e-01  1.2010372842268986e-01  1.2026661701710170e-01  1.2043773735796609e-01  1.2061299535401046e-01  1.2078825335005483e-01  1.2095937369091919e-01  1.2112226228533104e-01  1.2127292331841832e-01  1.2140753402873269e-01  1.2152254409239030e-01  1.2161479821397445e-01  1.2168167471240876e-01  1.2172121586691931e-01  1.2173170679883569e-01  1.1947962187753430e-01  1.1949026525256355e-01  1.1953035763284675e-01  1.1959818958588916e-01  1.1969174846673822e-01  1.1980834186876088e-01  1.1994474163227556e-01  1.2009733133086874e-01  1.2026223412346407e-01  1.2043541360623111e-01  1.2061274671668940e-01  1.2079007414337624e-01  1.2096323824527849e-01  1.2112812074640529e-01  1.2128069247696834e-01  1.2141708521219050e-01  1.2153369118577971e-01  1.2162728948650309e-01  1.2169519172604615e-01  1.2173537856325710e-01  1.2174603589037741e-01  1.1943550690852157e-01  1.1944663221674068e-01  1.1948851050722574e-01  1.1955933963858963e-01  1.1965692529279398e-01  1.1977835597380108e-01  1.1992018323983641e-01  1.2007859562985965e-01  1.2024956124115754e-01  1.2042893115112463e-01  1.2061250465827769e-01  1.2079606498345197e-01  1.2097539890660169e-01  1.2114631596952152e-01  1.2130468284615112e-01  1.2144648636525468e-01  1.2156793404526287e-01  1.2166559346695423e-01  1.2173656223440366e-01  1.2177863260533911e-01  1.2178978577614785e-01  1.1936055226293783e-01  1.1937252304163629e-01  1.1941754584454124e-01  1.1949360548385560e-01  1.1959816556902689e-01  1.1972791272504318e-01  1.1987900391072634e-01  1.2004728882837334e-01  1.2022847728806627e-01  1.2041824414816342e-01  1.2061227771251631e-01  1.2080628676269084e-01  1.2099598592454278e-01  1.2117708047551083e-01  1.2134527151911760e-01  1.2149630092569494e-01  1.2162605138375389e-01  1.2173070812647541e-01  1.2180697442947083e-01  1.2185229376220799e-01  1.2186430615796510e-01  1.1925234387296350e-01  1.1926558813282381e-01  1.1931534931096426e-01  1.1939923118322189e-01  1.1951412761585176e-01  1.1965607408044832e-01  1.1982060919871580e-01  1.2000307530555711e-01  1.2019882010806206e-01  1.2040329660086173e-01  1.2061207850803361e-01  1.2082081837148008e-01  1.2102517729395593e-01  1.2122075428787756e-01  1.2140304258429277e-01  1.2156744062972918e-01  1.2170934434930059e-01  1.2182433936474638e-01  1.2190849011694735e-01  1.2195866389468669e-01  1.2197196307605530e-01  1.1910724685241460e-01  1.1912230174945967e-01  1.1917879340120048e-01  1.1927368591999057e-01  1.1940295319010442e-01  1.1956161475840751e-01  1.1974428767617097e-01  1.1994560501279393e-01  1.2016045582707818e-01  1.2038406082743429e-01  1.2061192618460813e-01  1.2083972312869777e-01  1.2106313424018217e-01  1.2127770026489273e-01  1.2147869982596594e-01  1.2166109934770124e-01  1.2181961745461968e-01  1.2194894853880138e-01  1.2204416249558776e-01  1.2210120139076477e-01  1.2211632348065693e-01  1.1892007559127991e-01  1.1893765842109172e-01  1.1900353138395044e-01  1.1911358885757728e-01  1.1926231369486473e-01  1.1944314996076764e-01  1.1964937087379815e-01  1.1987466362866683e-01  1.2011339140221816e-01  1.2036059774326811e-01  1.2061184891247036e-01  1.2086299409335859e-01  1.2110989544958775e-01  1.2134816113506469e-01  1.2157291181878005e-01  1.2177862475447274e-01  1.2195912464354924e-01  1.2210781401869678e-01  1.2221822580882656e-01  1.2228481006004180e-01  1.2230247070986919e-01  1.1868353832041761e-01  1.1870466822945491e-01  1.1878367768981418e-01  1.1891462685297308e-01  1.1908953316032563e-01  1.1929937899816483e-01  1.1953550727081842e-01  1.1979041166331206e-01  1.2005794416274049e-01  1.2033314378527533e-01  1.2061188576307247e-01  1.2089047241258800e-01  1.2116521672558758e-01  1.2143203356474926e-01  1.2168605074907639e-01  1.2192127864693468e-01  1.2213043476230655e-01  1.2230509030025391e-01  1.2243638568905291e-01  1.2251631672806146e-01  1.2253753329851519e-01  1.1838726537878205e-01  1.1841351004594325e-01  1.1851131920877389e-01  1.1867150332612357e-01  1.1888188298977417e-01  1.1912954137172874e-01  1.1940311629748739e-01  1.1969374514803971e-01  1.1999497918630755e-01  1.2030222561641749e-01  1.2061208615498556e-01  1.2092173449864563e-01  1.2122834427589732e-01  1.2152853052869844e-01  1.2181776916775172e-01  1.2208980162773669e-01  1.2233612048348246e-01  1.2254581252197433e-01  1.2270625496567045e-01  1.2280526836979672e-01  1.2283159180883521e-01  1.1801601732131241e-01  1.1805010502851135e-01  1.1817576058259127e-01  1.1837802964672717e-01  1.1863725983381226e-01  1.1893425819564353e-01  1.1925410991304730e-01  1.1958680144073583e-01  1.1992620943024182e-01  1.2026879329358116e-01  1.2061250377651944e-01  1.2095595087967448e-01  1.2129772114599208e-01  1.2163570957719867e-01  1.2196634664238019e-01  1.2228364459386372e-01  1.2257808109260443e-01  1.2283567963799932e-01  1.2303799841967868e-01  1.2316530889320944e-01  1.2319930437469169e-01  1.1754686545506353e-01  1.1759364982455761e-01  1.1776224350595638e-01  1.1802771063336023e-01  1.1835573762141136e-01  1.1871704409501563e-01  1.1909295754694366e-01  1.1947358511316751e-01  1.1985451349012800e-01  1.2023434265757645e-01  1.2061318150663497e-01  1.2099173604746234e-01  1.2137065525306923e-01  1.2174987756978303e-01  1.2212774781208025e-01  1.2249966987023869e-01  1.2285615236125015e-01  1.2318015024748437e-01  1.2344516709036708e-01  1.2361677365783773e-01  1.2366281999739230e-01  1.1694994142308378e-01  1.1701069626383677e-01  1.1724944789050563e-01  1.1761617881098504e-01  1.1804310741307950e-01  1.1848682619086491e-01  1.1892802578138435e-01  1.1936056031685081e-01  1.1978415475299239e-01  1.2020097106204242e-01  1.2061412726745899e-01  1.2102703761607994e-01  1.2144303570849722e-01  1.2186496052768361e-01  1.2229439490629833e-01  1.2273015044383367e-01  1.2316533252922515e-01  1.2358199327962206e-01  1.2394478376289920e-01  1.2419230183239739e-01  1.2425595937632106e-01  1.1621113547635088e-01  1.1623039009443839e-01  1.1660727615424790e-01  1.1715071399642228e-01  1.1771827708516486e-01  1.1826130646556338e-01  1.1877265926384697e-01  1.1925683007319929e-01  1.1972070325790224e-01  1.2017129045223365e-01  1.2061529282359915e-01  1.2105915824523586e-01  1.2150926691788075e-01  1.2197206789155524e-01  1.2245390653859091e-01  1.2295989636354850e-01  1.2349069428118659e-01  1.2403591692656185e-01  1.2455255374210439e-01  1.2494765149211583e-01  1.2502788936466552e-01  1.1528861061432955e-01  1.1505616484127798e-01  1.1582462035343448e-01  1.1668030152984217e-01  1.1742414896292003e-01  1.1806881647039055e-01  1.1864464659454703e-01  1.1917332472288650e-01  1.1967043741421668e-01  1.2014812273606902e-01  1.2061656146709517e-01  1.2108502416660252e-01  1.2156275726002863e-01  1.2205985195683675e-01  1.2258821626943792e-01  1.2316260127019155e-01  1.2380015986986030e-01  1.2451121534410683e-01  1.2526938687847786e-01  1.2595568514094002e-01  1.2608326244863180e-01  1.1276903739849388e-01  1.1318440274229202e-01  1.1510137283626334e-01  1.1634579980474258e-01  1.1722736450252656e-01  1.1794272417592810e-01  1.1856246237605830e-01  1.1912060361597598e-01  1.1963910841499724e-01  1.2013390946242732e-01  1.2061766877074982e-01  1.2110161841622938e-01  1.2159702102736911e-01  1.2211664103167477e-01  1.2267667838254953e-01  1.2330005053827615e-01  1.2402333836135382e-01  1.2490928019285234e-01  1.2602880575523009e-01  1.2716643928034324e-01  1.2810788784327246e-01  9.8252724399120750e-02  1.1247503558287120e-01  1.1528530828057629e-01  1.1632351120693779e-01  1.1717508554875716e-01  1.1790679511104275e-01  1.1853980056868607e-01  1.1910625228878390e-01  1.1963056893716714e-01  1.2012997946511264e-01  1.2061785057565794e-01  1.2110594639010903e-01  1.2160607568795236e-01  1.2213174462396088e-01  1.2270039840854655e-01  1.2333690861472760e-01  1.2407801358646074e-01  1.2497811895722652e-01  1.2619260109092234e-01  1.2879335677215856e-01  1.3587890526152060e-01  </DataArray> 
</PointData> 
</Piece>
</UnstructuredGrid>
</VTKFile>