<?xml version="1.0"?>
<VTKFile type="UnstructuredGrid"  version="0.1"  >
<UnstructuredGrid>
<Piece  NumberOfPoints="651" NumberOfCells="1200">
<Points>
<DataArray  type="Float64"  NumberOfComponents="3"  format="ascii">0 0 0  50000 0 0  100000 0 0  150000 0 0  200000 0 0  250000 0 0  300000 0 0  350000 0 0  400000 0 0  450000 0 0  500000 0 0  550000 0 0  600000 0 0  650000 0 0  700000 0 0  750000 0 0  800000 0 0  850000 0 0  900000 0 0  950000 0 0  1000000 0 0  0 50000 0  50000 50000 0  100000 50000 0  150000 50000 0  200000 50000 0  250000 50000 0  300000 50000 0  350000 50000 0  400000 50000 0  450000 50000 0  500000 50000 0  550000 50000 0  600000 50000 0  650000 50000 0  700000 50000 0  750000 50000 0  800000 50000 0  850000 50000 0  900000 50000 0  950000 50000 0  1000000 50000 0  0 100000 0  50000 100000 0  100000 100000 0  150000 100000 0  200000 100000 0  250000 100000 0  300000 100000 0  350000 100000 0  400000 100000 0  450000 100000 0  500000 100000 0  550000 100000 0  600000 100000 0  650000 100000 0  700000 100000 0  750000 100000 0  800000 100000 0  850000 100000 0  900000 100000 0  950000 100000 0  1000000 100000 0  0 150000 0  50000 150000 0  100000 150000 0  150000 150000 0  200000 150000 0  250000 150000 0  300000 150000 0  350000 150000 0  400000 150000 0  450000 150000 0  500000 150000 0  550000 150000 0  600000 150000 0  650000 150000 0  700000 150000 0  750000 150000 0  800000 150000 0  850000 150000 0  900000 150000 0  950000 150000 0  1000000 150000 0  0 200000 0  50000 200000 0  100000 200000 0  150000 200000 0  200000 200000 0  250000 200000 0  300000 200000 0  350000 200000 0  400000 200000 0  450000 200000 0  500000 200000 0  550000 200000 0  600000 200000 0  650000 200000 0  700000 200000 0  750000 200000 0  800000 200000 0  850000 200000 0  900000 200000 0  950000 200000 0  1000000 200000 0  0 250000 0  50000 250000 0  100000 250000 0  150000 250000 0  200000 250000 0  250000 250000 0  300000 250000 0  350000 250000 0  400000 250000 0  450000 250000 0  500000 250000 0  550000 250000 0  600000 250000 0  650000 250000 0  700000 250000 0  750000 250000 0  800000 250000 0  850000 250000 0  900000 250000 0  950000 250000 0  1000000 250000 0  0 300000 0  50000 300000 0  100000 300000 0  150000 300000 0  200000 300000 0  250000 300000 0  300000 300000 0  350000 300000 0  400000 300000 0  450000 300000 0  500000 300000 0  550000 300000 0  600000 300000 0  650000 300000 0  700000 300000 0  750000 300000 0  800000 300000 0  850000 300000 0  900000 300000 0  950000 300000 0  1000000 300000 0  0 350000 0  50000 350000 0  100000 350000 0  150000 350000 0  200000 350000 0  250000 350000 0  300000 350000 0  350000 350000 0  400000 350000 0  450000 350000 0  500000 350000 0  550000 350000 0  600000 350000 0  650000 350000 0  700000 350000 0  750000 350000 0  800000 350000 0  850000 350000 0  900000 350000 0  950000 350000 0  1000000 350000 0  0 400000 0  50000 400000 0  100000 400000 0  150000 400000 0  200000 400000 0  250000 400000 0  300000 400000 0  350000 400000 0  400000 400000 0  450000 400000 0  500000 400000 0  550000 400000 0  600000 400000 0  650000 400000 0  700000 400000 0  750000 400000 0  800000 400000 0  850000 400000 0  900000 400000 0  950000 400000 0  1000000 400000 0  0 450000 0  50000 450000 0  100000 450000 0  150000 450000 0  200000 450000 0  250000 450000 0  300000 450000 0  350000 450000 0  400000 450000 0  450000 450000 0  500000 450000 0  550000 450000 0  600000 450000 0  650000 450000 0  700000 450000 0  750000 450000 0  800000 450000 0  850000 450000 0  900000 450000 0  950000 450000 0  1000000 450000 0  0 500000 0  50000 500000 0  100000 500000 0  150000 500000 0  200000 500000 0  250000 500000 0  300000 500000 0  350000 500000 0  400000 500000 0  450000 500000 0  500000 500000 0  550000 500000 0  600000 500000 0  650000 500000 0  700000 500000 0  750000 500000 0  800000 500000 0  850000 500000 0  900000 500000 0  950000 500000 0  1000000 500000 0  0 550000 0  50000 550000 0  100000 550000 0  150000 550000 0  200000 550000 0  250000 550000 0  300000 550000 0  350000 550000 0  400000 550000 0  450000 550000 0  500000 550000 0  550000 550000 0  600000 550000 0  650000 550000 0  700000 550000 0  750000 550000 0  800000 550000 0  850000 550000 0  900000 550000 0  950000 550000 0  1000000 550000 0  0 600000 0  50000 600000 0  100000 600000 0  150000 600000 0  200000 600000 0  250000 600000 0  300000 600000 0  350000 600000 0  400000 600000 0  450000 600000 0  500000 600000 0  550000 600000 0  600000 600000 0  650000 600000 0  700000 600000 0  750000 600000 0  800000 600000 0  850000 600000 0  900000 600000 0  950000 600000 0  1000000 600000 0  0 650000 0  50000 650000 0  100000 650000 0  150000 650000 0  200000 650000 0  250000 650000 0  300000 650000 0  350000 650000 0  400000 650000 0  450000 650000 0  500000 650000 0  550000 650000 0  600000 650000 0  650000 650000 0  700000 650000 0  750000 650000 0  800000 650000 0  850000 650000 0  900000 650000 0  950000 650000 0  1000000 650000 0  0 700000 0  50000 700000 0  100000 700000 0  150000 700000 0  200000 700000 0  250000 700000 0  300000 700000 0  350000 700000 0  400000 700000 0  450000 700000 0  500000 700000 0  550000 700000 0  600000 700000 0  650000 700000 0  700000 700000 0  750000 700000 0  800000 700000 0  850000 700000 0  900000 700000 0  950000 700000 0  1000000 700000 0  0 750000 0  50000 750000 0  100000 750000 0  150000 750000 0  200000 750000 0  250000 750000 0  300000 750000 0  350000 750000 0  400000 750000 0  450000 750000 0  500000 750000 0  550000 750000 0  600000 750000 0  650000 750000 0  700000 750000 0  750000 750000 0  800000 750000 0  850000 750000 0  900000 750000 0  950000 750000 0  1000000 750000 0  0 800000 0  50000 800000 0  100000 800000 0  150000 800000 0  200000 800000 0  250000 800000 0  300000 800000 0  350000 800000 0  400000 800000 0  450000 800000 0  500000 800000 0  550000 800000 0  600000 800000 0  650000 800000 0  700000 800000 0  750000 800000 0  800000 800000 0  850000 800000 0  900000 800000 0  950000 800000 0  1000000 800000 0  0 850000 0  50000 850000 0  100000 850000 0  150000 850000 0  200000 850000 0  250000 850000 0  300000 850000 0  350000 850000 0  400000 850000 0  450000 850000 0  500000 850000 0  550000 850000 0  600000 850000 0  650000 850000 0  700000 850000 0  750000 850000 0  800000 850000 0  850000 850000 0  900000 850000 0  950000 850000 0  1000000 850000 0  0 900000 0  50000 900000 0  100000 900000 0  150000 900000 0  200000 900000 0  250000 900000 0  300000 900000 0  350000 900000 0  400000 900000 0  450000 900000 0  500000 900000 0  550000 900000 0  600000 900000 0  650000 900000 0  700000 900000 0  750000 900000 0  800000 900000 0  850000 900000 0  900000 900000 0  950000 900000 0  1000000 900000 0  0 950000 0  50000 950000 0  100000 950000 0  150000 950000 0  200000 950000 0  250000 950000 0  300000 950000 0  350000 950000 0  400000 950000 0  450000 950000 0  500000 950000 0  550000 950000 0  600000 950000 0  650000 950000 0  700000 950000 0  750000 950000 0  800000 950000 0  850000 950000 0  900000 950000 0  950000 950000 0  1000000 950000 0  0 1000000 0  50000 1000000 0  100000 1000000 0  150000 1000000 0  200000 1000000 0  250000 1000000 0  300000 1000000 0  350000 1000000 0  400000 1000000 0  450000 1000000 0  500000 1000000 0  550000 1000000 0  600000 1000000 0  650000 1000000 0  700000 1000000 0  750000 1000000 0  800000 1000000 0  850000 1000000 0  900000 1000000 0  950000 1000000 0  1000000 1000000 0  0 1050000 0  50000 1050000 0  100000 1050000 0  150000 1050000 0  200000 1050000 0  250000 1050000 0  300000 1050000 0  350000 1050000 0  400000 1050000 0  450000 1050000 0  500000 1050000 0  550000 1050000 0  600000 1050000 0  650000 1050000 0  700000 1050000 0  750000 1050000 0  800000 1050000 0  850000 1050000 0  900000 1050000 0  950000 1050000 0  1000000 1050000 0  0 1100000 0  50000 1100000 0  100000 1100000 0  150000 1100000 0  200000 1100000 0  250000 1100000 0  300000 1100000 0  350000 1100000 0  400000 1100000 0  450000 1100000 0  500000 1100000 0  550000 1100000 0  600000 1100000 0  650000 1100000 0  700000 1100000 0  750000 1100000 0  800000 1100000 0  850000 1100000 0  900000 1100000 0  950000 1100000 0  1000000 1100000 0  0 1150000 0  50000 1150000 0  100000 1150000 0  150000 1150000 0  200000 1150000 0  250000 1150000 0  300000 1150000 0  350000 1150000 0  400000 1150000 0  450000 1150000 0  500000 1150000 0  550000 1150000 0  600000 1150000 0  650000 1150000 0  700000 1150000 0  750000 1150000 0  800000 1150000 0  850000 1150000 0  900000 1150000 0  950000 1150000 0  1000000 1150000 0  0 1200000 0  50000 1200000 0  100000 1200000 0  150000 1200000 0  200000 1200000 0  250000 1200000 0  300000 1200000 0  350000 1200000 0  400000 1200000 0  450000 1200000 0  500000 1200000 0  550000 1200000 0  600000 1200000 0  650000 1200000 0  700000 1200000 0  750000 1200000 0  800000 1200000 0  850000 1200000 0  900000 1200000 0  950000 1200000 0  1000000 1200000 0  0 1250000 0  50000 1250000 0  100000 1250000 0  150000 1250000 0  200000 1250000 0  250000 1250000 0  300000 1250000 0  350000 1250000 0  400000 1250000 0  450000 1250000 0  500000 1250000 0  550000 1250000 0  600000 1250000 0  650000 1250000 0  700000 1250000 0  750000 1250000 0  800000 1250000 0  850000 1250000 0  900000 1250000 0  950000 1250000 0  1000000 1250000 0  0 1300000 0  50000 1300000 0  100000 1300000 0  150000 1300000 0  200000 1300000 0  250000 1300000 0  300000 1300000 0  350000 1300000 0  400000 1300000 0  450000 1300000 0  500000 1300000 0  550000 1300000 0  600000 1300000 0  650000 1300000 0  700000 1300000 0  750000 1300000 0  800000 1300000 0  850000 1300000 0  900000 1300000 0  950000 1300000 0  1000000 1300000 0  0 1350000 0  50000 1350000 0  100000 1350000 0  150000 1350000 0  200000 1350000 0  250000 1350000 0  300000 1350000 0  350000 1350000 0  400000 1350000 0  450000 1350000 0  500000 1350000 0  550000 1350000 0  600000 1350000 0  650000 1350000 0  700000 135
[...]
<PointData  Scalars="f_6001"> 
<DataArray  type="Float64"  Name="f_6001"  format="ascii">1.0575421391903415e-01  1.1286349045624344e-01  1.1548529703405258e-01  1.1670836227636125e-01  1.1761375445828941e-01  1.1835926717258423e-01  1.1899965699439673e-01  1.1957180193843073e-01  1.2010070276072876e-01  1.2060390815563547e-01  1.2109500612549184e-01  1.2158587697223283e-01  1.2208835624288164e-01  1.2261589265067982e-01  1.2318581489529026e-01  1.2382262908049829e-01  1.2455849204154515e-01  1.2541512245017500e-01  1.2646434294961048e-01  1.2930081683825420e-01  1.4347430680831938e-01  1.1355947030895430e-01  1.1450596132945179e-01  1.1565167067011665e-01  1.1677742518531552e-01  1.1766864266336310e-01  1.1839635247206447e-01  1.1902354867792833e-01  1.1958702452212484e-01  1.2010983742989856e-01  1.2060828532387888e-01  1.2109520977980281e-01  1.2158194164209579e-01  1.2207978083688348e-01  1.2260146464148189e-01  1.2316301713272265e-01  1.2378652948452436e-01  1.2450629244909107e-01  1.2539346793419701e-01  1.2664494806333867e-01  1.2856755992742719e-01  1.2900258380283369e-01  1.1559697445980530e-01  1.1572549373101232e-01  1.1641543280733296e-01  1.1717787231594144e-01  1.1789318018664094e-01  1.1853465179375614e-01  1.1911257198309290e-01  1.1964418412455616e-01  1.2014433303255460e-01  1.2062500130055295e-01  1.2109634191972715e-01  1.2156765744549393e-01  1.2204827447557080e-01  1.2254843516596463e-01  1.2308035206484491e-01  1.2365971459492529e-01  1.2430835798436440e-01  1.2505676270002106e-01  1.2591739383705217e-01  1.2669044930689502e-01  1.2646006627874964e-01  1.1665862134236880e-01  1.1673912416189385e-01  1.1713640010585012e-01  1.1765608862326567e-01  1.1820460321419243e-01  1.1873862836385971e-01  1.1924771327235786e-01  1.1973250803138012e-01  1.2019815043439512e-01  1.2065102300680788e-01  1.2109761392483692e-01  1.2154434211983252e-01  1.2199769460992144e-01  1.2246441360486955e-01  1.2295155489130179e-01  1.2346604802162738e-01  1.2401241533382211e-01  1.2458345806226440e-01  1.2513023942562074e-01  1.2550954953061635e-01  1.2552774245798140e-01  1.1743489291778064e-01  1.1749885575365387e-01  1.1774780156503208e-01  1.1811278485313134e-01  1.1853197018681549e-01  1.1896979974687991e-01  1.1940821579029748e-01  1.1984027884740943e-01  1.2026479065497163e-01  1.2068334138828873e-01  1.2109878615041997e-01  1.2151447836888779e-01  1.2193385294878173e-01  1.2236004710677249e-01  1.2279523658888475e-01  1.2323914519156348e-01  1.2368558862951741e-01  1.2411513792832318e-01  1.2448411775733234e-01  1.2472425393489953e-01  1.2478489284337378e-01  1.1803149635756183e-01  1.1807781991008645e-01  1.1825044436178157e-01  1.1851707075457880e-01  1.1884304180783271e-01  1.1920169764009404e-01  1.1957589107600539e-01  1.1995607352105839e-01  1.2033761957120277e-01  1.2071886272109530e-01  1.2109974012287936e-01  1.2148090412170644e-01  1.2186306473856955e-01  1.2224633143830052e-01  1.2262929561028721e-01  1.2300751663886425e-01  1.2337104000009945e-01  1.2370107606642618e-01  1.2396815646591260e-01  1.2413773708685136e-01  1.2418476549836098e-01  1.1849778963636168e-01  1.1853200288948706e-01  1.1866008520397994e-01  1.1886363662538234e-01  1.1912280937709860e-01  1.1941904515623372e-01  1.1973828356801348e-01  1.2007094474428710e-01  1.2041100433318762e-01  1.2075487052674594e-01  1.2110042491659218e-01  1.2144624496898171e-01  1.2179093187773882e-01  1.2213242362956572e-01  1.2246715771643697e-01  1.2278897282555074e-01  1.2308779311760096e-01  1.2334861068255275e-01  1.2355211335855143e-01  1.2367853356168634e-01  1.2371285293660406e-01  1.1886772576587634e-01  1.1889422087447613e-01  1.1899384328408777e-01  1.1915526842203987e-01  1.1936624499131893e-01  1.1961407239360070e-01  1.1988777098245114e-01  1.2017878187480618e-01  1.2048080850131876e-01  1.2078929902999494e-01  1.2110084757316579e-01  1.2141261020909117e-01  1.2172174310329760e-01  1.2202482695317499e-01  1.2231724059343374e-01  1.2259249544787031e-01  1.2284167416368526e-01  1.2305334476690821e-01  1.2321451282555523e-01  1.2331292955149144e-01  1.2333935270656646e-01  1.1916356906789510e-01  1.1918492578202569e-01  1.1926535284207089e-01  1.1939745654178922e-01  1.1957318465283717e-01  1.1978362415997121e-01  1.2002029486495319e-01  1.2027587010724478e-01  1.2054432387080095e-01  1.2082075425248345e-01  1.2110105106672650e-01  1.2138150462041247e-01  1.2165839445172986e-01  1.2192757038774324e-01  1.2218404090716484e-01  1.2242162019442782e-01  1.2263275592688937e-01  1.2280873842465993e-01  1.2294049643315733e-01  1.2302000085875794e-01  1.2304127378385325e-01  1.1940006182977279e-01  1.1941784037486658e-01  1.1948484025230385e-01  1.1959593451558490e-01  1.1974553928662351e-01  1.1992714866513811e-01  1.2013412511297041e-01  1.2036025580381722e-01  1.2059998441299802e-01  1.2084840187382394e-01  1.2110108949292776e-01  1.2135388407519100e-01  1.2160260932901347e-01  1.2184280429376323e-01  1.2206948210499320e-01  1.2227697141233637e-01  1.2245892089721534e-01  1.2260856307536970e-01  1.2271930290801673e-01  1.2278559037408664e-01  1.2280329288137505e-01  1.1958734359791166e-01  1.1960256742284051e-01  1.1965996386561840e-01  1.1975576814916092e-01  1.1988589721960888e-01  1.2004539127854395e-01  1.2022891255349423e-01  1.2043114755277164e-01  1.2064703206770905e-01  1.2087181594596470e-01  1.2110101270452789e-01  1.2133027851538773e-01  1.2155525810100055e-01  1.2177143010492848e-01  1.2197398597715045e-01  1.2215778354247364e-01  1.2231742318409017e-01  1.2244748936468734e-01  1.2254297175900111e-01  1.2259981990589421e-01  1.2261497778044303e-01  1.1973258490467147e-01  1.1974597406544799e-01  1.1979646336027448e-01  1.1988113707330995e-01  1.1999684293223964e-01  1.2013962157338143e-01  1.2030503183322069e-01  1.2048844162552463e-01  1.2068522137045440e-01  1.2089083682255222e-01  1.2110086013110619e-01  1.2131092588550166e-01  1.2151666004219205e-01  1.2171360925284400e-01  1.2189719871562249e-01  1.2206274773604736e-01  1.2220557028230228e-01  1.2232117790965384e-01  1.2240558218466889e-01  1.2245565797383114e-01  1.2246899304903235e-01  1.1984089924360689e-01  1.1985299326543913e-01  1.1989859828815523e-01  1.1997533941106725e-01  1.2008064404737558e-01  1.2021119546061165e-01  1.2036315569303424e-01  1.2053238236133369e-01  1.2071459138325030e-01  1.2090545764336277e-01  1.2110066020665647e-01  1.2129588752615898e-01  1.2148682216323377e-01  1.2166912607422944e-01  1.2183844769765662e-01  1.2199047065995329e-01  1.2212101936881252e-01  1.2222622741419656e-01  1.2230276135346844e-01  1.2234806912987260e-01  1.2236012207231045e-01  1.1991587483492895e-01  1.1992710405184762e-01  1.1996944013022323e-01  1.2004085133011835e-01  1.2013911600039617e-01  1.2026131408108592e-01  1.2040399224843491e-01  1.2056333490366303e-01  1.2073530440088535e-01  1.2091574219620856e-01  1.2110043225427766e-01  1.2128513562924011e-01  1.2146560978818977e-01  1.2163762837348535e-01  1.2179701712839459e-01  1.2193971954188704e-01  1.2206190090526541e-01  1.2216009176804718e-01  1.2223136294086268e-01  1.2227350644382166e-01  1.2228470811795311e-01  1.1995989186532756e-01  1.1997062205177476e-01  1.2001106305111192e-01  1.2007938899113106e-01  1.2017356780270680e-01  1.2029089471203407e-01  1.2042812916650253e-01  1.2058164139073382e-01  1.2074753955774679e-01  1.2092176990843638e-01  1.2110018902795897e-01  1.2127861389120451e-01  1.2145285978977825e-01  1.2161877848614483e-01  1.2177230893400376e-01  1.2190955062876303e-01  1.2202686507472948e-01  1.2212100442275875e-01  1.2218925986818388e-01  1.2222960615808848e-01  1.2224032254171895e-01  1.1997430810410216e-01  1.1998487090162299e-01  1.2002466236279684e-01  1.2009195636353984e-01  1.2018478286787088e-01  1.2030050421176033e-01  1.2043594584854922e-01  1.2058753578691866e-01  1.2075142793381395e-01  1.2092360208352565e-01  1.2109993915065093e-01  1.2127627621777617e-01  1.2144845036748790e-01  1.2161234251438319e-01  1.2176393245275262e-01  1.2189937408954155e-01  1.2201509543343103e-01  1.2210792193776204e-01  1.2217521593850504e-01  1.2221500739967883e-01  1.2222557019719968e-01  1.1995955575958289e-01  1.1997027214321337e-01  1.2001061843311800e-01  1.2007887387854310e-01  1.2017301322657242e-01  1.2029032767253887e-01  1.2042756936729813e-01  1.2058109981515709e-01  1.2074701851152361e-01  1.2092126441009737e-01  1.2109968927334294e-01  1.2127810839286553e-01  1.2145233874355510e-01  1.2161823691056804e-01  1.2177174913479931e-01  1.2190898358926780e-01  1.2202631049859508e-01  1.2212048931017083e-01  1.2218881525018999e-01  1.2222925624952709e-01  1.2223998643597433e-01  1.1991517018334868e-01  1.1992637185748020e-01  1.1996851536043920e-01  1.2003978653325470e-01  1.2013797739603650e-01  1.2026015875941490e-01  1.2040286117290734e-01  1.2056224992781661e-01  1.2073426851311218e-01  1.2091474267206184e-01  1.2109944604702429e-01  1.2128413610509338e-01  1.2146457390041654e-01  1.2163654339763888e-01  1.2179588605286704e-01  1.2193856422021603e-01  1.2206076230090579e-01  1.2215902697118360e-01  1.2223043817107875e-01  1.2227277424945435e-01  1.2228400346637300e-01  1.1983975622899150e-01  1.1985180917142936e-01  1.1989711694783352e-01  1.1997365088710536e-01  1.2007885893248947e-01  1.2020940764134873e-01  1.2036143060364542e-01  1.2053075222707257e-01  1.2071305613806822e-01  1.2090399077514304e-01  1.2109921809464559e-01  1.2129442065793927e-01  1.2148528691805172e-01  1.2166749593996831e-01  1.2183672260826779e-01  1.2198868284069038e-01  1.2211923425392647e-01  1.2222453889023481e-01  1.2230128001314679e-01  1.2234688503586288e-01  1.2235897905769513e-01  1.1973088525226973e-01  1.1974422032747098e-01  1.1979429611663323e-01  1.1987870039164820e-01  1.1999430801899982e-01  1.2013713056525471e-01  1.2030267958567964e-01  1.2048626904845812e-01  1.2068321825911005e-01  1.2088895241580042e-01  1.2109901817019594e-01  1.2130904147874992e-01  1.2151465693084773e-01  1.2171143667577748e-01  1.2189484646808145e-01  1.2206025672792070e-01  1.2220303536906255e-01  1.2231874122799220e-01  1.2240341494102763e-01  1.2245390423585412e-01  1.2246729339663066e-01  1.1958490052085925e-01  1.1960005839540805e-01  1.1965690654230116e-01  1.1975238893661490e-01  1.1988245511721211e-01  1.2004209475882863e-01  1.2022589232415185e-01  1.2042844819637381e-01  1.2064462020030174e-01  1.2086959978591455e-01  1.2109886559677439e-01  1.2132806235533757e-01  1.2155284623359321e-01  1.2176873074853065e-01  1.2197096574780808e-01  1.2215448702275833e-01  1.2231398108169345e-01  1.2244411015214139e-01  1.2253991443568385e-01  1.2259731087846173e-01  1.2261253470339059e-01  1.1939658541992744e-01  1.1941428792721584e-01  1.1948057539328573e-01  1.1959131522593278e-01  1.1974095740408713e-01  1.1992290688896608e-01  1.2013039619630930e-01  1.2035707400753924e-01  1.2059726897228905e-01  1.2084599422611152e-01  1.2109878880837473e-01  1.2135147642747854e-01  1.2159989388830446e-01  1.2183962249748526e-01  1.2206575318833207e-01  1.2227272963616437e-01  1.2245433901467895e-01  1.2260394378571755e-01  1.2271503804899855e-01  1.2278203792643581e-01  1.2279981647152961e-01  1.1915860451744947e-01  1.1917987744254477e-01  1.1925938186814541e-01  1.1939113987664275e-01  1.1956712237441333e-01  1.1977825810687488e-01  1.2001583739413785e-01  1.2027230791355946e-01  1.2054148384957285e-01  1.2081837368089025e-01  1.2109882723457620e-01  1.2137912404881927e-01  1.2165555443050177e-01  1.2192400819405791e-01  1.2217958343634951e-01  1.2241625414133148e-01  1.2262669364846547e-01  1.2280242175951338e-01  1.2293452545923166e-01  1.2301495251927684e-01  1.2303630923340744e-01  1.1886052559473653e-01  1.1888694874981157e-01  1.1898536547574773e-01  1.1914653353439469e-01  1.1935820413761768e-01  1.1960738285343263e-01  1.1988263770786917e-01  1.2017505134812791e-01  1.2047813519800529e-01  1.2078726809221173e-01  1.2109903072813710e-01  1.2141057927130797e-01  1.2171906979998419e-01  1.2202109642649674e-01  1.2231210731885177e-01  1.2258580590770214e-01  1.2283363330998391e-01  1.2304460987926293e-01  1.2320603501721498e-01  1.2330565742682659e-01  1.2333215253542637e-01  1.1848702536469928e-01  1.1852134473961697e-01  1.1864776494275184e-01  1.1885126761875046e-01  1.1911208518370220e-01  1.1941090547575245e-01  1.1973272058486620e-01  1.2006745467173746e-01  1.2040894642356437e-01  1.2075363333232148e-01  1.2109945338471098e-01  1.2144500777455723e-01  1.2178887396811555e-01  1.2212893355701601e-01  1.2246159473328960e-01  1.2278083314506934e-01  1.2307706892420445e-01  1.2333624167592065e-01  1.2353979309732303e-01  1.2366787541181588e-01  1.2370208866494126e-01  1.1801511280294277e-01  1.1806214121445234e-01  1.1823172183539105e-01  1.1849880223487738e-01  1.1882883830120403e-01  1.1919236166243920e-01  1.1957058269101623e-01  1.1995354686300295e-01  1.2033681356273394e-01  1.2071897417959700e-01  1.2110013817842408e-01  1.2148101558020813e-01  1.2186225873010066e-01  1.2224380478024499e-01  1.2262398722529794e-01  1.2299818066120924e-01  1.2335683649347054e-01  1.2368280754672442e-01  1.2394943393952162e-01  1.2412205839121669e-01  1.2416838194374129e-01  1.1741498545793044e-01  1.1747562436640460e-01  1.1771576054397165e-01  1.1808474037298071e-01  1.1851428967178639e-01  1.1896073310974026e-01  1.1940464171241899e-01  1.1983983119453129e-01  1.2026602535252201e-01  1.2068539993241591e-01  1.2110109215088373e-01  1.2151653691301496e-01  1.2193508764633204e-01  1.2235959945389419e-01  1.2279166251100608e-01  1.2323007855442364e-01  1.2366790811448798e-01  1.2408709344817209e-01  1.2445207673627132e-01  1.2470102254764950e-01  1.2476498538352272e-01  1.1667213584332359e-01  1.1669032877068826e-01  1.1706963887568358e-01  1.1761642023903977e-01  1.1818746296748199e-01  1.1873383027967670e-01  1.1924832341000223e-01  1.1973546469643451e-01  1.2020218369138255e-01  1.2065553618147146e-01  1.2110226437646703e-01  1.2154885529449608e-01  1.2200172786690884e-01  1.2246737026992374e-01  1.2295216502894596e-01  1.2346124993744406e-01  1.2399527508711128e-01  1.2454378967803795e-01  1.2506347819545346e-01  1.2546075413940974e-01  1.2554125695893475e-01  1.1573981202255666e-01  1.1550942899441008e-01  1.1628248446425227e-01  1.1714311560128335e-01  1.1789152031694000e-01  1.1854016370637907e-01  1.1911952623645944e-01  1.1965144313533974e-01  1.2015160382573349e-01  1.2063222085581034e-01  1.2110353638157707e-01  1.2157487700075129e-01  1.2205554526874962e-01  1.2255569417674800e-01  1.2308730631821119e-01  1.2366522650754787e-01  1.2430669811466298e-01  1.2502200598536237e-01  1.2578444549397078e-01  1.2647438457029150e-01  1.2660290384149853e-01  1.1319729449847303e-01  1.1363231837387847e-01  1.1555493023796538e-01  1.1680641036710752e-01  1.1769358585221366e-01  1.1841334881678037e-01  1.1903686116858204e-01  1.1959841365982279e-01  1.2012009746442115e-01  1.2061793665920877e-01  1.2110466852150172e-01  1.2159159297742561e-01  1.2209004087140590e-01  1.2261285377917958e-01  1.2317632962337606e-01  1.2380352582923983e-01  1.2453123563794107e-01  1.2542245311598854e-01  1.2654820763118732e-01  1.2769391697185103e-01  1.2864040799235049e-01  9.8725571493014308e-02  1.1289906146303624e-01  1.1573553535169233e-01  1.1678475585113013e-01  1.1764138625975989e-01  1.1837724922080661e-01  1.1901406340601461e-01  1.1958398565062499e-01  1.2011152205842317e-01  1.2061400132907189e-01  1.2110487217581285e-01  1.2159597014566914e-01  1.2209917554057587e-01  1.2262807636287387e-01  1.2320022130690786e-01  1.2384061112872029e-01  1.2458612384301491e-01  1.2549151602494277e-01  1.2671458126725041e-01  1.2933638784505727e-01  1.3644566438227859e-01  </DataArray> 
</PointData> 
</Piece>
</UnstructuredGrid>
</VTKFile>