<?xml version="1.0"?>
<VTKFile type="UnstructuredGrid"  version="0.1"  >
<UnstructuredGrid>
<Piece  NumberOfPoints="651" NumberOfCells="1200">
<Points>
<DataArray  type="Float64"  NumberOfComponents="3"  format="ascii">0 0 0  50000 0 0  100000 0 0  150000 0 0  200000 0 0  250000 0 0  300000 0 0  350000 0 0  400000 0 0  450000 0 0  500000 0 0  550000 0 0  600000 0 0  650000 0 0  700000 0 0  750000 0 0  800000 0 0  850000 0 0  900000 0 0  950000 0 0  1000000 0 0  0 50000 0  50000 50000 0  100000 50000 0  150000 50000 0  200000 50000 0  250000 50000 0  300000 50000 0  350000 50000 0  400000 50000 0  450000 50000 0  500000 50000 0  550000 50000 0  600000 50000 0  650000 50000 0  700000 50000 0  750000 50000 0  800000 50000 0  850000 50000 0  900000 50000 0  950000 50000 0  1000000 50000 0  0 100000 0  50000 100000 0  100000 100000 0  150000 100000 0  200000 100000 0  250000 100000 0  300000 100000 0  350000 100000 0  400000 100000 0  450000 100000 0  500000 100000 0  550000 100000 0  600000 100000 0  650000 100000 0  700000 100000 0  750000 100000 0  800000 100000 0  850000 100000 0  900000 100000 0  950000 100000 0  1000000 100000 0  0 150000 0  50000 150000 0  100000 150000 0  150000 150000 0  200000 150000 0  250000 150000 0  300000 150000 0  350000 150000 0  400000 150000 0  450000 150000 0  500000 150000 0  550000 150000 0  600000 150000 0  650000 150000 0  700000 150000 0  750000 150000 0  800000 150000 0  850000 150000 0  900000 150000 0  950000 150000 0  1000000 150000 0  0 200000 0  50000 200000 0  100000 200000 0  150000 200000 0  200000 200000 0  250000 200000 0  300000 200000 0  350000 200000 0  400000 200000 0  450000 200000 0  500000 200000 0  550000 200000 0  600000 200000 0  650000 200000 0  700000 200000 0  750000 200000 0  800000 200000 0  850000 200000 0  900000 200000 0  950000 200000 0  1000000 200000 0  0 250000 0  50000 250000 0  100000 250000 0  150000 250000 0  200000 250000 0  250000 250000 0  300000 250000 0  350000 250000 0  400000 250000 0  450000 250000 0  500000 250000 0  550000 250000 0  600000 250000 0  650000 250000 0  700000 250000 0  750000 250000 0  800000 250000 0  850000 250000 0  900000 250000 0  950000 250000 0  1000000 250000 0  0 300000 0  50000 300000 0  100000 300000 0  150000 300000 0  200000 300000 0  250000 300000 0  300000 300000 0  350000 300000 0  400000 300000 0  450000 300000 0  500000 300000 0  550000 300000 0  600000 300000 0  650000 300000 0  700000 300000 0  750000 300000 0  800000 300000 0  850000 300000 0  900000 300000 0  950000 300000 0  1000000 300000 0  0 350000 0  50000 350000 0  100000 350000 0  150000 350000 0  200000 350000 0  250000 350000 0  300000 350000 0  350000 350000 0  400000 350000 0  450000 350000 0  500000 350000 0  550000 350000 0  600000 350000 0  650000 350000 0  700000 350000 0  750000 350000 0  800000 350000 0  850000 350000 0  900000 350000 0  950000 350000 0  1000000 350000 0  0 400000 0  50000 400000 0  100000 400000 0  150000 400000 0  200000 400000 0  250000 400000 0  300000 400000 0  350000 400000 0  400000 400000 0  450000 400000 0  500000 400000 0  550000 400000 0  600000 400000 0  650000 400000 0  700000 400000 0  750000 400000 0  800000 400000 0  850000 400000 0  900000 400000 0  950000 400000 0  1000000 400000 0  0 450000 0  50000 450000 0  100000 450000 0  150000 450000 0  200000 450000 0  250000 450000 0  300000 450000 0  350000 450000 0  400000 450000 0  450000 450000 0  500000 450000 0  550000 450000 0  600000 450000 0  650000 450000 0  700000 450000 0  750000 450000 0  800000 450000 0  850000 450000 0  900000 450000 0  950000 450000 0  1000000 450000 0  0 500000 0  50000 500000 0  100000 500000 0  150000 500000 0  200000 500000 0  250000 500000 0  300000 500000 0  350000 500000 0  400000 500000 0  450000 500000 0  500000 500000 0  550000 500000 0  600000 500000 0  650000 500000 0  700000 500000 0  750000 500000 0  800000 500000 0  850000 500000 0  900000 500000 0  950000 500000 0  1000000 500000 0  0 550000 0  50000 550000 0  100000 550000 0  150000 550000 0  200000 550000 0  250000 550000 0  300000 550000 0  350000 550000 0  400000 550000 0  450000 550000 0  500000 550000 0  550000 550000 0  600000 550000 0  650000 550000 0  700000 550000 0  750000 550000 0  800000 550000 0  850000 550000 0  900000 550000 0  950000 550000 0  1000000 550000 0  0 600000 0  50000 600000 0  100000 600000 0  150000 600000 0  200000 600000 0  250000 600000 0  300000 600000 0  350000 600000 0  400000 600000 0  450000 600000 0  500000 600000 0  550000 600000 0  600000 600000 0  650000 600000 0  700000 600000 0  750000 600000 0  800000 600000 0  850000 600000 0  900000 600000 0  950000 600000 0  1000000 600000 0  0 650000 0  50000 650000 0  100000 650000 0  150000 650000 0  200000 650000 0  250000 650000 0  300000 650000 0  350000 650000 0  400000 650000 0  450000 650000 0  500000 650000 0  550000 650000 0  600000 650000 0  650000 650000 0  700000 650000 0  750000 650000 0  800000 650000 0  850000 650000 0  900000 650000 0  950000 650000 0  1000000 650000 0  0 700000 0  50000 700000 0  100000 700000 0  150000 700000 0  200000 700000 0  250000 700000 0  300000 700000 0  350000 700000 0  400000 700000 0  450000 700000 0  500000 700000 0  550000 700000 0  600000 700000 0  650000 700000 0  700000 700000 0  750000 700000 0  800000 700000 0  850000 700000 0  900000 700000 0  950000 700000 0  1000000 700000 0  0 750000 0  50000 750000 0  100000 750000 0  150000 750000 0  200000 750000 0  250000 750000 0  300000 750000 0  350000 750000 0  400000 750000 0  450000 750000 0  500000 750000 0  550000 750000 0  600000 750000 0  650000 750000 0  700000 750000 0  750000 750000 0  800000 750000 0  850000 750000 0  900000 750000 0  950000 750000 0  1000000 750000 0  0 800000 0  50000 800000 0  100000 800000 0  150000 800000 0  200000 800000 0  250000 800000 0  300000 800000 0  350000 800000 0  400000 800000 0  450000 800000 0  500000 800000 0  550000 800000 0  600000 800000 0  650000 800000 0  700000 800000 0  750000 800000 0  800000 800000 0  850000 800000 0  900000 800000 0  950000 800000 0  1000000 800000 0  0 850000 0  50000 850000 0  100000 850000 0  150000 850000 0  200000 850000 0  250000 850000 0  300000 850000 0  350000 850000 0  400000 850000 0  450000 850000 0  500000 850000 0  550000 850000 0  600000 850000 0  650000 850000 0  700000 850000 0  750000 850000 0  800000 850000 0  850000 850000 0  900000 850000 0  950000 850000 0  1000000 850000 0  0 900000 0  50000 900000 0  100000 900000 0  150000 900000 0  200000 900000 0  250000 900000 0  300000 900000 0  350000 900000 0  400000 900000 0  450000 900000 0  500000 900000 0  550000 900000 0  600000 900000 0  650000 900000 0  700000 900000 0  750000 900000 0  800000 900000 0  850000 900000 0  900000 900000 0  950000 900000 0  1000000 900000 0  0 950000 0  50000 950000 0  100000 950000 0  150000 950000 0  200000 950000 0  250000 950000 0  300000 950000 0  350000 950000 0  400000 950000 0  450000 950000 0  500000 950000 0  550000 950000 0  600000 950000 0  650000 950000 0  700000 950000 0  750000 950000 0  800000 950000 0  850000 950000 0  900000 950000 0  950000 950000 0  1000000 950000 0  0 1000000 0  50000 1000000 0  100000 1000000 0  150000 1000000 0  200000 1000000 0  250000 1000000 0  300000 1000000 0  350000 1000000 0  400000 1000000 0  450000 1000000 0  500000 1000000 0  550000 1000000 0  600000 1000000 0  650000 1000000 0  700000 1000000 0  750000 1000000 0  800000 1000000 0  850000 1000000 0  900000 1000000 0  950000 1000000 0  1000000 1000000 0  0 1050000 0  50000 1050000 0  100000 1050000 0  150000 1050000 0  200000 1050000 0  250000 1050000 0  300000 1050000 0  350000 1050000 0  400000 1050000 0  450000 1050000 0  500000 1050000 0  550000 1050000 0  600000 1050000 0  650000 1050000 0  700000 1050000 0  750000 1050000 0  800000 1050000 0  850000 1050000 0  900000 1050000 0  950000 1050000 0  1000000 1050000 0  0 1100000 0  50000 1100000 0  100000 1100000 0  150000 1100000 0  200000 1100000 0  250000 1100000 0  300000 1100000 0  350000 1100000 0  400000 1100000 0  450000 1100000 0  500000 1100000 0  550000 1100000 0  600000 1100000 0  650000 1100000 0  700000 1100000 0  750000 1100000 0  800000 1100000 0  850000 1100000 0  900000 1100000 0  950000 1100000 0  1000000 1100000 0  0 1150000 0  50000 1150000 0  100000 1150000 0  150000 1150000 0  200000 1150000 0  250000 1150000 0  300000 1150000 0  350000 1150000 0  400000 1150000 0  450000 1150000 0  500000 1150000 0  550000 1150000 0  600000 1150000 0  650000 1150000 0  700000 1150000 0  750000 1150000 0  800000 1150000 0  850000 1150000 0  900000 1150000 0  950000 1150000 0  1000000 1150000 0  0 1200000 0  50000 1200000 0  100000 1200000 0  150000 1200000 0  200000 1200000 0  250000 1200000 0  300000 1200000 0  350000 1200000 0  400000 1200000 0  450000 1200000 0  500000 1200000 0  550000 1200000 0  600000 1200000 0  650000 1200000 0  700000 1200000 0  750000 1200000 0  800000 1200000 0  850000 1200000 0  900000 1200000 0  950000 1200000 0  1000000 1200000 0  0 1250000 0  50000 1250000 0  100000 1250000 0  150000 1250000 0  200000 1250000 0  250000 1250000 0  300000 1250000 0  350000 1250000 0  400000 1250000 0  450000 1250000 0  500000 1250000 0  550000 1250000 0  600000 1250000 0  650000 1250000 0  700000 1250000 0  750000 1250000 0  800000 1250000 0  850000 1250000 0  900000 1250000 0  950000 1250000 0  1000000 1250000 0  0 1300000 0  50000 1300000 0  100000 1300000 0  150000 1300000 0  200000 1300000 0  250000 1300000 0  300000 1300000 0  350000 1300000 0  400000 1300000 0  450000 1300000 0  500000 1300000 0  550000 1300000 0  600000 1300000 0  650000 1300000 0  700000 1300000 0  750000 1300000 0  800000 1300000 0  850000 1300000 0  900000 1300000 0  950000 1300000 0  1000000 1300000 0  0 1350000 0  50000 1350000 0  100000 1350000 0  150000 1350000 0  200000 1350000 0  250000 1350000 0  300000 1350000 0  350000 1350000 0  400000 1350000 0  450000 1350000 0  500000 1350000 0  550000 1350000 0  600000 1350000 0  650000 1350000 0  700000 135
[...]
<PointData  Scalars="f_6001"> 
<DataArray  type="Float64"  Name="f_6001"  format="ascii">1.0489238170043146e-01  1.1193049587643933e-01  1.1448974452412958e-01  1.1568735470898246e-01  1.1657701357707190e-01  1.1730940179805492e-01  1.1793824633346353e-01  1.1850000338088987e-01  1.1901928751091295e-01  1.1951333984271888e-01  1.1999550499448784e-01  1.2047745047927769e-01  1.2097080000314520e-01  1.2148876067759781e-01  1.2204836087398897e-01  1.2267380014314874e-01  1.2339719759824119e-01  1.2423956590353945e-01  1.2526068254440539e-01  1.2801782261083286e-01  1.4224867825732554e-01  1.1259523853056232e-01  1.1352680614445923e-01  1.1464853392892005e-01  1.1575574771489217e-01  1.1663125913403652e-01  1.1734581047155375e-01  1.1796162824101381e-01  1.1851487253528790e-01  1.1902818475218357e-01  1.1951757139488436e-01  1.1999564447628594e-01  1.2047353199176572e-01  1.2096233223408845e-01  1.2147455827554783e-01  1.2202596096785301e-01  1.2263825419839108e-01  1.2334501474944512e-01  1.2421572218391613e-01  1.2544538645642209e-01  1.2734647802891857e-01  1.2773214883092224e-01  1.1459449516555778e-01  1.1472026665118823e-01  1.1539936981063886e-01  1.1614910213083404e-01  1.1685175311781255e-01  1.1748158087224291e-01  1.1804898208829798e-01  1.1857093029205031e-01  1.1906199135294107e-01  1.1953392600156394e-01  1.1999670345426482e-01  1.2045945931130975e-01  1.2093135344949819e-01  1.2142244546598921e-01  1.2194472784815333e-01  1.2251358949999905e-01  1.2315040756064001e-01  1.2388510771488667e-01  1.2473045846209055e-01  1.2549002169149195e-01  1.2525930856133990e-01  1.1563753119864166e-01  1.1571723644016929e-01  1.1610802645085802e-01  1.1661863259029229e-01  1.1715735158606036e-01  1.1768177373918154e-01  1.1818164888282248e-01  1.1865764761082447e-01  1.1911483528538168e-01  1.1955948381135290e-01  1.1999796494879009e-01  1.2043658238031918e-01  1.2088170660466555e-01  1.2133995767079044e-01  1.2181825967930703e-01  1.2232340362982702e-01  1.2285981013999270e-01  1.2342042149534438e-01  1.2395724439829892e-01  1.2432980901241386e-01  1.2435145301390148e-01  1.1640087583355538e-01  1.1646392212498898e-01  1.1670861973810109e-01  1.1706707825965165e-01  1.1747875145631520e-01  1.1790870322138047e-01  1.1833920271985565e-01  1.1876344394523831e-01  1.1918025800179741e-01  1.1959121318297088e-01  1.1999911658048297e-01  1.2040726256356749e-01  1.2081902443952247e-01  1.2123748197540944e-01  1.2166476882482503e-01  1.2210060926635066e-01  1.2253893071121845e-01  1.2296067554796973e-01  1.2332301873211206e-01  1.2355912977760626e-01  1.2361985651135332e-01  1.1698716390483967e-01  1.1703266218294506e-01  1.1720225778951611e-01  1.1746409491949193e-01  1.1778419472471272e-01  1.1813638361945393e-01  1.1850381837388069e-01  1.1887712065805403e-01  1.1925175222576653e-01  1.1962608023141577e-01  1.2000004563658051e-01  1.2037429067508520e-01  1.2074951328438020e-01  1.2112582091503393e-01  1.2150182997685366e-01  1.2187318087425249e-01  1.2223010516196263e-01  1.2255417025465311e-01  1.2281647078205825e-01  1.2298311512646531e-01  1.2302937077133785e-01  1.1744519169268590e-01  1.1747875724111624e-01  1.1760454250089905e-01  1.1780442603623713e-01  1.1805891470159190e-01  1.1834979660715218e-01  1.1866326101863124e-01  1.1898989925454480e-01  1.1932379588260078e-01  1.1966142536646537e-01  1.2000070916395961e-01  1.2034025168984347e-01  1.2067868025028888e-01  1.2101397068290828e-01  1.2134262570451845e-01  1.2165859753928193e-01  1.2195199742354440e-01  1.2220809617447681e-01  1.2240793352025839e-01  1.2253207817629486e-01  1.2256571553864462e-01  1.1780851185634858e-01  1.1783449588335174e-01  1.1793230592972567e-01  1.1809080689226226e-01  1.1829796126836079e-01  1.1854129989290114e-01  1.1881004077212573e-01  1.1909577814112071e-01  1.1939232851269529e-01  1.1969522259339346e-01  1.2000111675152461e-01  1.2030721925739024e-01  1.2061073841448260e-01  1.2090831748083047e-01  1.2119541986739582e-01  1.2146567597664366e-01  1.2171033191623697e-01  1.2191816344160467e-01  1.2207640595064381e-01  1.2217301674041553e-01  1.2219891218413541e-01  1.1809904426414394e-01  1.1811998369117610e-01  1.1819893471366937e-01  1.1832863315215694e-01  1.1850116972049654e-01  1.1870779039344963e-01  1.1894016789366209e-01  1.1919110696866111e-01  1.1945468986153142e-01  1.1972610310293957e-01  1.2000131103150709e-01  1.2027667144895104e-01  1.2054853168309895e-01  1.2081281721159626e-01  1.2106462751508040e-01  1.2129788947271639e-01  1.2150518782019595e-01  1.2167796925173685e-01  1.2180732182314197e-01  1.2188535465920977e-01  1.2190620214319337e-01  1.1833128126592803e-01  1.1834870884913103e-01  1.1841447194813194e-01  1.1852353541069136e-01  1.1867041631835340e-01  1.1884872430715815e-01  1.1905194105297047e-01  1.1927396538538289e-01  1.1950934088962879e-01  1.1975324697680696e-01  1.2000134483942673e-01  1.2024954674631991e-01  1.2049375223207838e-01  1.2072958138524015e-01  1.2095213791903768e-01  1.2115585330881430e-01  1.2133449087124984e-01  1.2148140417256277e-01  1.2159011437725684e-01  1.2165516901650378e-01  1.2167251527190506e-01  1.1851518703843401e-01  1.1853010804469356e-01  1.1858644053880439e-01  1.1868048822386602e-01  1.1880824279529191e-01  1.1896483281210739e-01  1.1914501620099849e-01  1.1934357502610779e-01  1.1955553622557796e-01  1.1977623527018211e-01  1.2000126670223032e-01  1.2022636528493011e-01  1.2044725463766730e-01  1.2065949534749562e-01  1.2085836596740215e-01  1.2103881729523609e-01  1.2119554697609997e-01  1.2132323639553416e-01  1.2141696401651234e-01  1.2147275167032005e-01  1.2148760309499571e-01  1.1865780710062758e-01  1.1867092844112147e-01  1.1872047886280684e-01  1.1880359644080984e-01  1.1891718710905450e-01  1.1905736233676964e-01  1.1921976065788878e-01  1.1939983333097522e-01  1.1959303416827462e-01  1.1979491068359652e-01  1.2000111496437436e-01  1.2020736050254181e-01  1.2040935237754635e-01  1.2060271781793890e-01  1.2078296475320888e-01  1.2094549701143700e-01  1.2108571295993004e-01  1.2119920465822433e-01  1.2128205474621835e-01  1.2133119455187395e-01  1.2134425937900607e-01  1.1876416518476775e-01  1.1877601625329284e-01  1.1882077116559710e-01  1.1889609941136374e-01  1.1899947617974314e-01  1.1912764428172307e-01  1.1927683476330436e-01  1.1944297984111950e-01  1.1962187265532939e-01  1.1980926610824380e-01  1.2000091726645493e-01  1.2019259247007939e-01  1.2038005231150095e-01  1.2055903715811511e-01  1.2072527407241671e-01  1.2087452459466348e-01  1.2100268838904775e-01  1.2110596855859652e-01  1.2118109134092953e-01  1.2122555125495504e-01  1.2123735968007250e-01  1.1883778621315458e-01  1.1884878908961949e-01  1.1889033452645195e-01  1.1896042923256124e-01  1.1905689294119706e-01  1.1917685815224792e-01  1.1931693374235756e-01  1.1947337289713231e-01  1.1964221079575778e-01  1.1981936393312162e-01  1.2000069238428610e-01  1.2018203375832130e-01  1.2035922216168821e-01  1.2052810758548943e-01  1.2068459116091761e-01  1.2082468959994037e-01  1.2094463736103507e-01  1.2104102749214513e-01  1.2111098343344162e-01  1.2115233783296360e-01  1.2116331223450623e-01  1.1888100827466208e-01  1.1889152161024454e-01  1.1893120633194619e-01  1.1899827153089773e-01  1.1909072300602874e-01  1.1920590473728858e-01  1.1934063461282930e-01  1.1949134834390603e-01  1.1965422433244757e-01  1.1982528198774475e-01  1.2000045270061248e-01  1.2017562898279885e-01  1.2034670170144307e-01  1.2050959753351836e-01  1.2066032876018085e-01  1.2079506528769217e-01  1.2091023428321544e-01  1.2100264647592589e-01  1.2106964184451076e-01  1.2110923263751726e-01  1.2111973173482797e-01  1.1889516512671101e-01  1.1890551403530156e-01  1.1894456070336035e-01  1.1901061242484169e-01  1.1910173579991717e-01  1.1921534071762238e-01  1.1934830990910655e-01  1.1949713585191371e-01  1.1965804187636339e-01  1.1982708035462450e-01  1.2000020657637102e-01  1.2017333279811747e-01  1.2034237127637859e-01  1.2050327730082824e-01  1.2065210324363537e-01  1.2078507243511956e-01  1.2089867735282478e-01  1.2098980072790025e-01  1.2105585244938161e-01  1.2109489911744035e-01  1.2110524802603088e-01  1.1888068141791397e-01  1.1889118051522468e-01  1.1893077130823124e-01  1.1899776667681608e-01  1.1909017886952654e-01  1.1920534786504978e-01  1.1934008439256116e-01  1.1949081561922363e-01  1.1965371145129888e-01  1.1982478416994310e-01  1.1999996045212954e-01  1.2017513116499728e-01  1.2034618882029444e-01  1.2050906480883591e-01  1.2065977853991260e-01  1.2079450841545335e-01  1.2090969014671323e-01  1.2100214162184422e-01  1.2106920682079579e-01  1.2110889154249740e-01  1.2111940487807986e-01  1.1883710091823574e-01  1.1884807531977842e-01  1.1888942971930039e-01  1.1895938566059690e-01  1.1905577579170695e-01  1.1917572355280165e-01  1.1931582199182447e-01  1.1947230556725259e-01  1.1964119099105379e-01  1.1981837939442073e-01  1.1999972076845597e-01  1.2018104921962042e-01  1.2035820235698422e-01  1.2052704025560962e-01  1.2068347941038440e-01  1.2082355500049409e-01  1.2094352021154496e-01  1.2103998392018074e-01  1.2111007862629007e-01  1.2115162406312251e-01  1.2116262693958740e-01  1.1876305347266961e-01  1.1877486189778706e-01  1.1881932181181259e-01  1.1889444459414555e-01  1.1899772476369436e-01  1.1912588855807862e-01  1.1927513908032543e-01  1.1944137599462698e-01  1.1962036084124114e-01  1.1980782068266274e-01  1.1999949588628722e-01  1.2019114704449835e-01  1.2037854049741267e-01  1.2055743331162250e-01  1.2072357838943767e-01  1.2087276887101901e-01  1.2100093697299896e-01  1.2110431374137837e-01  1.2117964198714498e-01  1.2122439689944921e-01  1.2123624796797430e-01  1.1865615377373617e-01  1.1866921860086829e-01  1.1871835840652391e-01  1.1880120849451788e-01  1.1891470019281217e-01  1.1905491614130523e-01  1.1921744839953335e-01  1.1939769533480331e-01  1.1959106077519585e-01  1.1979305265020040e-01  1.1999929818836784e-01  1.2020550246914569e-01  1.2040737898446752e-01  1.2060057982176689e-01  1.2078065249485333e-01  1.2094305081597251e-01  1.2108322604368771e-01  1.2119681671193233e-01  1.2127993428993529e-01  1.2132948471162065e-01  1.2134260605211453e-01  1.1851281005774678e-01  1.1852766148242241e-01  1.1858344913623015e-01  1.1867717675720828e-01  1.1880486617664245e-01  1.1896159585750624e-01  1.1914204718534020e-01  1.1934091780524672e-01  1.1955315851507507e-01  1.1977404786781226e-01  1.1999914645051200e-01  1.2022417788256021e-01  1.2044487692716432e-01  1.2065683812663450e-01  1.2085539695174377e-01  1.2103558034063490e-01  1.2119217035745040e-01  1.2131992492887626e-01  1.2141397261393784e-01  1.2147030510804863e-01  1.2148522611430819e-01  1.1832789788083767e-01  1.1834524413623894e-01  1.1841029877548587e-01  1.1851900898017992e-01  1.1866592228149281e-01  1.1884455984392830e-01  1.1904827523370490e-01  1.1927083176750236e-01  1.1950666092066414e-01  1.1975086640642264e-01  1.1999906831331579e-01  1.2024716617593553e-01  1.2049107226311367e-01  1.2072644776735958e-01  1.2094847209977200e-01  1.2115168884558429e-01  1.2132999683438903e-01  1.2147687774205103e-01  1.2158594120461043e-01  1.2165170430361132e-01  1.2166913188681430e-01  1.1809421100954960e-01  1.1811505849353315e-01  1.1819309132960099e-01  1.1832244390100609e-01  1.1849522533254696e-01  1.1870252368002648e-01  1.1893578563766241e-01  1.1918759594114653e-01  1.1945188146964381e-01  1.1972374170379169e-01  1.1999910212123563e-01  1.2027431004980313e-01  1.2054572329121126e-01  1.2080930618408155e-01  1.2106024525908056e-01  1.2129262275929298e-01  1.2149924343224602e-01  1.2167178000058558e-01  1.2180147843907309e-01  1.2188042946156631e-01  1.2190136888859850e-01  1.1780150096860789e-01  1.1782739641232776e-01  1.1792400720209942e-01  1.1808224971113851e-01  1.1829008123650617e-01  1.1853473717609941e-01  1.1880499328534720e-01  1.1909209567191251e-01  1.1938967473826037e-01  1.1969319389535268e-01  1.1999929640121831e-01  1.2030519055934946e-01  1.2060808464004757e-01  1.2090463501162210e-01  1.2119037238061707e-01  1.2145911325984161e-01  1.2170245188438192e-01  1.2190960626048043e-01  1.2206810722301695e-01  1.2216591726939083e-01  1.2219190129639400e-01  1.1743469761409908e-01  1.1746833497644880e-01  1.1759247963248518e-01  1.1779231697826664e-01  1.1804841572919898e-01  1.1834181561346141e-01  1.1865778744822483e-01  1.1898644246983497e-01  1.1932173290245433e-01  1.1966016146289972e-01  1.1999970398878354e-01  1.2033898778627775e-01  1.2067661727014233e-01  1.2101051389819822e-01  1.2133715213411173e-01  1.2165061654559074e-01  1.2194149845115099e-01  1.2219598711650574e-01  1.2239587065184378e-01  1.2252165591162656e-01  1.2255522146005690e-01  1.1697104238140643e-01  1.1701729802627885e-01  1.1718394237068573e-01  1.1744624289809069e-01  1.1777030799078103e-01  1.1812723227849109e-01  1.1849858317588986e-01  1.1887459223770960e-01  1.1925089986836331e-01  1.1962612247765825e-01  1.2000036751616290e-01  1.2037433292132760e-01  1.2074866092697681e-01  1.2112329249468921e-01  1.2149659477886247e-01  1.2186402953328919e-01  1.2221621842803035e-01  1.2253631823325110e-01  1.2279815536322691e-01  1.2296775096979796e-01  1.2301324924790331e-01  1.1638055664139171e-01  1.1644128337513852e-01  1.1667739442063230e-01  1.1703973760477432e-01  1.1746148244152546e-01  1.1789980388639315e-01  1.1833564432791877e-01  1.1876293117733436e-01  1.1918138871322129e-01  1.1959315058917619e-01  1.2000129657226069e-01  1.2040919996977274e-01  1.2082015515094614e-01  1.2123696920750515e-01  1.2166121043288773e-01  1.2209170993136284e-01  1.2252166169642802e-01  1.2293333489309149e-01  1.2329179341464208e-01  1.2353649102775421e-01  1.2359953731918782e-01  1.1564896013884528e-01  1.1567060414033167e-01  1.1604316875444563e-01  1.1657999165739980e-01  1.1714060301275141e-01  1.1767700952291707e-01  1.1818215347343705e-01  1.1866045548195364e-01  1.1911870654807846e-01  1.1956383077242475e-01  1.2000244820395381e-01  1.2044092934139096e-01  1.2088557786736209e-01  1.2134276554191921e-01  1.2181876426992112e-01  1.2231863941356193e-01  1.2284306156668298e-01  1.2338178056245094e-01  1.2389238670188525e-01  1.2428317671257418e-01  1.2436288195410174e-01  1.1474110459140995e-01  1.1451039146125437e-01  1.1526995469065346e-01  1.1611530543785734e-01  1.1685000559210429e-01  1.1748682365274533e-01  1.1805568530459105e-01  1.1857796768675516e-01  1.1906905970324608e-01  1.1954095384143446e-01  1.2000370969847936e-01  1.2046648715118016e-01  1.2093842179980295e-01  1.2142948286069362e-01  1.2195143106444586e-01  1.2251883228050076e-01  1.2314866003493090e-01  1.2385131102190917e-01  1.2460104334210442e-01  1.2528014650155547e-01  1.2540591798718584e-01  1.1226826432182591e-01  1.1265393512382975e-01  1.1455502669631981e-01  1.1578469096882781e-01  1.1665539840329961e-01  1.1736215895435370e-01  1.1797445218489171e-01  1.1852585487719680e-01  1.1903808091865614e-01  1.1952688116097882e-01  1.2000476867645851e-01  1.2048284175786000e-01  1.2097222840056071e-01  1.2148554061745628e-01  1.2203878491173026e-01  1.2265460268119019e-01  1.2336915401870716e-01  1.2424466543785141e-01  1.2535187922382346e-01  1.2647360700828006e-01  1.2740517462218320e-01  9.7751734895539982e-02  1.1198259054185312e-01  1.1473973060833180e-01  1.1576084724920667e-01  1.1660321555450431e-01  1.1732661300959622e-01  1.1795205227875588e-01  1.1851165247514696e-01  1.1902961314959955e-01  1.1952296267346701e-01  1.2000490815825676e-01  1.2048707331002560e-01  1.2098112564183147e-01  1.2150040977185446e-01  1.2206216681928070e-01  1.2269101135468914e-01  1.2342339957567192e-01  1.2431305844376070e-01  1.2551066862861010e-01  1.2806991727629202e-01  1.3510803145234260e-01  </DataArray> 
</PointData> 
</Piece>
</UnstructuredGrid>
</VTKFile>