<?xml version="1.0"?>
<VTKFile type="UnstructuredGrid"  version="0.1"  >
<UnstructuredGrid>
<Piece  NumberOfPoints="651" NumberOfCells="1200">
<Points>
<DataArray  type="Float64"  NumberOfComponents="3"  format="ascii">0 0 0  50000 0 0  100000 0 0  150000 0 0  200000 0 0  250000 0 0  300000 0 0  350000 0 0  400000 0 0  450000 0 0  500000 0 0  550000 0 0  600000 0 0  650000 0 0  700000 0 0  750000 0 0  800000 0 0  850000 0 0  900000 0 0  950000 0 0  1000000 0 0  0 50000 0  50000 50000 0  100000 50000 0  150000 50000 0  200000 50000 0  250000 50000 0  300000 50000 0  350000 50000 0  400000 50000 0  450000 50000 0  500000 50000 0  550000 50000 0  600000 50000 0  650000 50000 0  700000 50000 0  750000 50000 0  800000 50000 0  850000 50000 0  900000 50000 0  950000 50000 0  1000000 50000 0  0 100000 0  50000 100000 0  100000 100000 0  150000 100000 0  200000 100000 0  250000 100000 0  300000 100000 0  350000 100000 0  400000 100000 0  450000 100000 0  500000 100000 0  550000 100000 0  600000 100000 0  650000 100000 0  700000 100000 0  750000 100000 0  800000 100000 0  850000 100000 0  900000 100000 0  950000 100000 0  1000000 100000 0  0 150000 0  50000 150000 0  100000 150000 0  150000 150000 0  200000 150000 0  250000 150000 0  300000 150000 0  350000 150000 0  400000 150000 0  450000 150000 0  500000 150000 0  550000 150000 0  600000 150000 0  650000 150000 0  700000 150000 0  750000 150000 0  800000 150000 0  850000 150000 0  900000 150000 0  950000 150000 0  1000000 150000 0  0 200000 0  50000 200000 0  100000 200000 0  150000 200000 0  200000 200000 0  250000 200000 0  300000 200000 0  350000 200000 0  400000 200000 0  450000 200000 0  500000 200000 0  550000 200000 0  600000 200000 0  650000 200000 0  700000 200000 0  750000 200000 0  800000 200000 0  850000 200000 0  900000 200000 0  950000 200000 0  1000000 200000 0  0 250000 0  50000 250000 0  100000 250000 0  150000 250000 0  200000 250000 0  250000 250000 0  300000 250000 0  350000 250000 0  400000 250000 0  450000 250000 0  500000 250000 0  550000 250000 0  600000 250000 0  650000 250000 0  700000 250000 0  750000 250000 0  800000 250000 0  850000 250000 0  900000 250000 0  950000 250000 0  1000000 250000 0  0 300000 0  50000 300000 0  100000 300000 0  150000 300000 0  200000 300000 0  250000 300000 0  300000 300000 0  350000 300000 0  400000 300000 0  450000 300000 0  500000 300000 0  550000 300000 0  600000 300000 0  650000 300000 0  700000 300000 0  750000 300000 0  800000 300000 0  850000 300000 0  900000 300000 0  950000 300000 0  1000000 300000 0  0 350000 0  50000 350000 0  100000 350000 0  150000 350000 0  200000 350000 0  250000 350000 0  300000 350000 0  350000 350000 0  400000 350000 0  450000 350000 0  500000 350000 0  550000 350000 0  600000 350000 0  650000 350000 0  700000 350000 0  750000 350000 0  800000 350000 0  850000 350000 0  900000 350000 0  950000 350000 0  1000000 350000 0  0 400000 0  50000 400000 0  100000 400000 0  150000 400000 0  200000 400000 0  250000 400000 0  300000 400000 0  350000 400000 0  400000 400000 0  450000 400000 0  500000 400000 0  550000 400000 0  600000 400000 0  650000 400000 0  700000 400000 0  750000 400000 0  800000 400000 0  850000 400000 0  900000 400000 0  950000 400000 0  1000000 400000 0  0 450000 0  50000 450000 0  100000 450000 0  150000 450000 0  200000 450000 0  250000 450000 0  300000 450000 0  350000 450000 0  400000 450000 0  450000 450000 0  500000 450000 0  550000 450000 0  600000 450000 0  650000 450000 0  700000 450000 0  750000 450000 0  800000 450000 0  850000 450000 0  900000 450000 0  950000 450000 0  1000000 450000 0  0 500000 0  50000 500000 0  100000 500000 0  150000 500000 0  200000 500000 0  250000 500000 0  300000 500000 0  350000 500000 0  400000 500000 0  450000 500000 0  500000 500000 0  550000 500000 0  600000 500000 0  650000 500000 0  700000 500000 0  750000 500000 0  800000 500000 0  850000 500000 0  900000 500000 0  950000 500000 0  1000000 500000 0  0 550000 0  50000 550000 0  100000 550000 0  150000 550000 0  200000 550000 0  250000 550000 0  300000 550000 0  350000 550000 0  400000 550000 0  450000 550000 0  500000 550000 0  550000 550000 0  600000 550000 0  650000 550000 0  700000 550000 0  750000 550000 0  800000 550000 0  850000 550000 0  900000 550000 0  950000 550000 0  1000000 550000 0  0 600000 0  50000 600000 0  100000 600000 0  150000 600000 0  200000 600000 0  250000 600000 0  300000 600000 0  350000 600000 0  400000 600000 0  450000 600000 0  500000 600000 0  550000 600000 0  600000 600000 0  650000 600000 0  700000 600000 0  750000 600000 0  800000 600000 0  850000 600000 0  900000 600000 0  950000 600000 0  1000000 600000 0  0 650000 0  50000 650000 0  100000 650000 0  150000 650000 0  200000 650000 0  250000 650000 0  300000 650000 0  350000 650000 0  400000 650000 0  450000 650000 0  500000 650000 0  550000 650000 0  600000 650000 0  650000 650000 0  700000 650000 0  750000 650000 0  800000 650000 0  850000 650000 0  900000 650000 0  950000 650000 0  1000000 650000 0  0 700000 0  50000 700000 0  100000 700000 0  150000 700000 0  200000 700000 0  250000 700000 0  300000 700000 0  350000 700000 0  400000 700000 0  450000 700000 0  500000 700000 0  550000 700000 0  600000 700000 0  650000 700000 0  700000 700000 0  750000 700000 0  800000 700000 0  850000 700000 0  900000 700000 0  950000 700000 0  1000000 700000 0  0 750000 0  50000 750000 0  100000 750000 0  150000 750000 0  200000 750000 0  250000 750000 0  300000 750000 0  350000 750000 0  400000 750000 0  450000 750000 0  500000 750000 0  550000 750000 0  600000 750000 0  650000 750000 0  700000 750000 0  750000 750000 0  800000 750000 0  850000 750000 0  900000 750000 0  950000 750000 0  1000000 750000 0  0 800000 0  50000 800000 0  100000 800000 0  150000 800000 0  200000 800000 0  250000 800000 0  300000 800000 0  350000 800000 0  400000 800000 0  450000 800000 0  500000 800000 0  550000 800000 0  600000 800000 0  650000 800000 0  700000 800000 0  750000 800000 0  800000 800000 0  850000 800000 0  900000 800000 0  950000 800000 0  1000000 800000 0  0 850000 0  50000 850000 0  100000 850000 0  150000 850000 0  200000 850000 0  250000 850000 0  300000 850000 0  350000 850000 0  400000 850000 0  450000 850000 0  500000 850000 0  550000 850000 0  600000 850000 0  650000 850000 0  700000 850000 0  750000 850000 0  800000 850000 0  850000 850000 0  900000 850000 0  950000 850000 0  1000000 850000 0  0 900000 0  50000 900000 0  100000 900000 0  150000 900000 0  200000 900000 0  250000 900000 0  300000 900000 0  350000 900000 0  400000 900000 0  450000 900000 0  500000 900000 0  550000 900000 0  600000 900000 0  650000 900000 0  700000 900000 0  750000 900000 0  800000 900000 0  850000 900000 0  900000 900000 0  950000 900000 0  1000000 900000 0  0 950000 0  50000 950000 0  100000 950000 0  150000 950000 0  200000 950000 0  250000 950000 0  300000 950000 0  350000 950000 0  400000 950000 0  450000 950000 0  500000 950000 0  550000 950000 0  600000 950000 0  650000 950000 0  700000 950000 0  750000 950000 0  800000 950000 0  850000 950000 0  900000 950000 0  950000 950000 0  1000000 950000 0  0 1000000 0  50000 1000000 0  100000 1000000 0  150000 1000000 0  200000 1000000 0  250000 1000000 0  300000 1000000 0  350000 1000000 0  400000 1000000 0  450000 1000000 0  500000 1000000 0  550000 1000000 0  600000 1000000 0  650000 1000000 0  700000 1000000 0  750000 1000000 0  800000 1000000 0  850000 1000000 0  900000 1000000 0  950000 1000000 0  1000000 1000000 0  0 1050000 0  50000 1050000 0  100000 1050000 0  150000 1050000 0  200000 1050000 0  250000 1050000 0  300000 1050000 0  350000 1050000 0  400000 1050000 0  450000 1050000 0  500000 1050000 0  550000 1050000 0  600000 1050000 0  650000 1050000 0  700000 1050000 0  750000 1050000 0  800000 1050000 0  850000 1050000 0  900000 1050000 0  950000 1050000 0  1000000 1050000 0  0 1100000 0  50000 1100000 0  100000 1100000 0  150000 1100000 0  200000 1100000 0  250000 1100000 0  300000 1100000 0  350000 1100000 0  400000 1100000 0  450000 1100000 0  500000 1100000 0  550000 1100000 0  600000 1100000 0  650000 1100000 0  700000 1100000 0  750000 1100000 0  800000 1100000 0  850000 1100000 0  900000 1100000 0  950000 1100000 0  1000000 1100000 0  0 1150000 0  50000 1150000 0  100000 1150000 0  150000 1150000 0  200000 1150000 0  250000 1150000 0  300000 1150000 0  350000 1150000 0  400000 1150000 0  450000 1150000 0  500000 1150000 0  550000 1150000 0  600000 1150000 0  650000 1150000 0  700000 1150000 0  750000 1150000 0  800000 1150000 0  850000 1150000 0  900000 1150000 0  950000 1150000 0  1000000 1150000 0  0 1200000 0  50000 1200000 0  100000 1200000 0  150000 1200000 0  200000 1200000 0  250000 1200000 0  300000 1200000 0  350000 1200000 0  400000 1200000 0  450000 1200000 0  500000 1200000 0  550000 1200000 0  600000 1200000 0  650000 1200000 0  700000 1200000 0  750000 1200000 0  800000 1200000 0  850000 1200000 0  900000 1200000 0  950000 1200000 0  1000000 1200000 0  0 1250000 0  50000 1250000 0  100000 1250000 0  150000 1250000 0  200000 1250000 0  250000 1250000 0  300000 1250000 0  350000 1250000 0  400000 1250000 0  450000 1250000 0  500000 1250000 0  550000 1250000 0  600000 1250000 0  650000 1250000 0  700000 1250000 0  750000 1250000 0  800000 1250000 0  850000 1250000 0  900000 1250000 0  950000 1250000 0  1000000 1250000 0  0 1300000 0  50000 1300000 0  100000 1300000 0  150000 1300000 0  200000 1300000 0  250000 1300000 0  300000 1300000 0  350000 1300000 0  400000 1300000 0  450000 1300000 0  500000 1300000 0  550000 1300000 0  600000 1300000 0  650000 1300000 0  700000 1300000 0  750000 1300000 0  800000 1300000 0  850000 1300000 0  900000 1300000 0  950000 1300000 0  1000000 1300000 0  0 1350000 0  50000 1350000 0  100000 1350000 0  150000 1350000 0  200000 1350000 0  250000 1350000 0  300000 1350000 0  350000 1350000 0  400000 1350000 0  450000 1350000 0  500000 1350000 0  550000 1350000 0  600000 1350000 0  650000 1350000 0  700000 135
[...]
<PointData  Scalars="f_6001"> 
<DataArray  type="Float64"  Name="f_6001"  format="ascii">1.0518266604207324e-01  1.1220903145720057e-01  1.1475801000269242e-01  1.1595145186319816e-01  1.1683852665753414e-01  1.1756875729479317e-01  1.1819570462207539e-01  1.1875575496438756e-01  1.1927345913075757e-01  1.1976600768739550e-01  1.2024670526827554e-01  1.2072718442353020e-01  1.2121903410830187e-01  1.2173542193556587e-01  1.2229332655565736e-01  1.2291689284440985e-01  1.2363823176809181e-01  1.2447832502710118e-01  1.2549523898479351e-01  1.2823922830541293e-01  1.4247191776068729e-01  1.1286865346625610e-01  1.1379777561107085e-01  1.1491556768790802e-01  1.1601973548341799e-01  1.1689266532337919e-01  1.1760505455067995e-01  1.1821900291560233e-01  1.1877056623974808e-01  1.1928231757612989e-01  1.1977021555188860e-01  1.2024683446058798e-01  1.2072326897859306e-01  1.2121058428794053e-01  1.2172125659048438e-01  1.2227099170890512e-01  1.2288144250090061e-01  1.2358607516166102e-01  1.2445409576786683e-01  1.2568010213467656e-01  1.2757725728066022e-01  1.2795560879684426e-01  1.1486163202841965e-01  1.1498695695476302e-01  1.1566428091894737e-01  1.1641192445872794e-01  1.1711249490944131e-01  1.1774040950330780e-01  1.1830608263281900e-01  1.1882644320475251e-01  1.1931601125033765e-01  1.1978651107088270e-01  1.2024788170135503e-01  1.2070923131903287e-01  1.2117969241112753e-01  1.2166929458671437e-01  1.2218999431706071e-01  1.2275713165360222e-01  1.2339200759481543e-01  1.2412444452776852e-01  1.2496723776697261e-01  1.2572459697912822e-01  1.2549434292135475e-01  1.1590161628775465e-01  1.1598118936640077e-01  1.1637091346591838e-01  1.1688002695270744e-01  1.1741713644895951e-01  1.1793998084030444e-01  1.1843834287853824e-01  1.1891289653236262e-01  1.1936869521094561e-01  1.1981199262975466e-01  1.2024914142671210e-01  1.2068642635365447e-01  1.2113019876654123e-01  1.2158705864915806e-01  1.2206390846437364e-01  1.2256751616790146e-01  1.2310228416766075e-01  1.2366117578700195e-01  1.2419636191135178e-01  1.2456785617463663e-01  1.2459008999044355e-01  1.1666283614768805e-01  1.1672573076042056e-01  1.1696973028328762e-01  1.1732711686617110e-01  1.1773755585730569e-01  1.1816621335940085e-01  1.1859541224297550e-01  1.1901836841658464e-01  1.1943391781631635e-01  1.1984362513391700e-01  1.2025028956662850e-01  1.2065719577731447e-01  1.2106770694746054e-01  1.2148489338710064e-01  1.2191088176153488e-01  1.2234539621244712e-01  1.2278238229842106e-01  1.2320284460889129e-01  1.2356410195447476e-01  1.2379955874497614e-01  1.2386027516081510e-01  1.1724742847520780e-01  1.1729279094012075e-01  1.1746188880714854e-01  1.1772293914535086e-01  1.1804207439566299e-01  1.1839320084200204e-01  1.1875952520576127e-01  1.1913169714456059e-01  1.1950519273104925e-01  1.1987838464701157e-01  1.2025121447668322e-01  1.2062432278750199e-01  1.2099840552268146e-01  1.2137356978248659e-01  1.2174843605060591e-01  1.2211865802473559e-01  1.2247449802328345e-01  1.2279758275235203e-01  1.2305909952497313e-01  1.2322526101076300e-01  1.2327138494388422e-01  1.1770409815490834e-01  1.1773755722623204e-01  1.1786296500844590e-01  1.1806224593124991e-01  1.1831596508232400e-01  1.1860596741115613e-01  1.1891848321371673e-01  1.1924413193799063e-01  1.1957701604928739e-01  1.1991362089930133e-01  1.2025187449302682e-01  1.2059038566873773e-01  1.2092778601674348e-01  1.2126205758578337e-01  1.2158971380866633e-01  1.2190472560262358e-01  1.2219723505853249e-01  1.2245255889327755e-01  1.2265179438478746e-01  1.2277556496769251e-01  1.2280909077801724e-01  1.1806633137549792e-01  1.1809223135898428e-01  1.1818974360402770e-01  1.1834776412903424e-01  1.1855429056847450e-01  1.1879689174240990e-01  1.1906481812311703e-01  1.1934968910383253e-01  1.1964533977785551e-01  1.1994731441235920e-01  1.2025227960284621e-01  1.2055745219248590e-01  1.2086004904878006e-01  1.2115672370888481e-01  1.2144295348939657e-01  1.2171238836840145e-01  1.2195630134540345e-01  1.2216350229502917e-01  1.2232126428496695e-01  1.2241757846105063e-01  1.2244338745499524e-01  1.1835599123080515e-01  1.1837686203926931e-01  1.1845557053951150e-01  1.1858487379964561e-01  1.1875688602713487e-01  1.1896287930873055e-01  1.1919455148088980e-01  1.1944472887963550e-01  1.1970751153434007e-01  1.1997810050488372e-01  1.2025247237341266e-01  1.2052699603019777e-01  1.2079802994094090e-01  1.2106151201536774e-01  1.2131255669322552e-01  1.2154510938091122e-01  1.2175177733912967e-01  1.2192403294277135e-01  1.2205299040125889e-01  1.2213078153742124e-01  1.2215155910331471e-01  1.1858752903074941e-01  1.1860489891297153e-01  1.1867045880666492e-01  1.1877918861663261e-01  1.1892562201470286e-01  1.1910338761811232e-01  1.1930598668326817e-01  1.1952733638161005e-01  1.1976199671220680e-01  1.2000516162231790e-01  1.2025250542917663e-01  1.2049995280015935e-01  1.2074341572875442e-01  1.2097852762203115e-01  1.2120040707888216e-01  1.2140350247252626e-01  1.2158159595402537e-01  1.2172806097224138e-01  1.2183643777448609e-01  1.2190128990103792e-01  1.2191857759115228e-01  1.1877088014890599e-01  1.1878575137533449e-01  1.1884190906254015e-01  1.1893566814692619e-01  1.1906303260579487e-01  1.1921914551510154e-01  1.1939878052201143e-01  1.1959673538771769e-01  1.1980805202424701e-01  1.2002807996934435e-01  1.2025242707728855e-01  1.2047684102373231e-01  1.2069705839128653e-01  1.2090865323140965e-01  1.2110691840947485e-01  1.2128681999939916e-01  1.2144307162499401e-01  1.2157037059243576e-01  1.2166380994655714e-01  1.2171942338485869e-01  1.2173422444160714e-01  1.1891306956013314e-01  1.1892614687660999e-01  1.1897554304279249e-01  1.1905840495636182e-01  1.1917164811460536e-01  1.1931139562449608e-01  1.1947329911278062e-01  1.1965282352965240e-01  1.1984543638724468e-01  1.2004669863147217e-01  1.2025227548303914e-01  1.2045789339732878e-01  1.2065927045376371e-01  1.2085204711994209e-01  1.2103174491825677e-01  1.2119378156335738e-01  1.2133356928775998e-01  1.2144671337522435e-01  1.2152930813951759e-01  1.2157829417908529e-01  1.2159131459059182e-01  1.1901910624609026e-01  1.1903091737969335e-01  1.1907553262127252e-01  1.1915062874007218e-01  1.1925368877465635e-01  1.1938146531962301e-01  1.1953020075733922e-01  1.1969583955985987e-01  1.1987418755376342e-01  1.2006101045874655e-01  1.2025207815641371e-01  1.2044316978330498e-01  1.2063005875203034e-01  1.2080849831267655e-01  1.2097422844523341e-01  1.2112302349034527e-01  1.2125079547542941e-01  1.2135375892271985e-01  1.2142864987343065e-01  1.2147297049511341e-01  1.2148473873292784e-01  1.1909250472867107e-01  1.1910347040207028e-01  1.1914488593975422e-01  1.1921476435513244e-01  1.1931093218046439e-01  1.1943053055120828e-01  1.1957017856279815e-01  1.1972614070105045e-01  1.1989446410925043e-01  1.2007107761026216e-01  1.2025185378337698e-01  1.2043264281506995e-01  1.2060929140315359e-01  1.2077766208230241e-01  1.2093366836926277e-01  1.2107333900559381e-01  1.2119291981272545e-01  1.2128901410585849e-01  1.2135875397119686e-01  1.2139997872945343e-01  1.2141091577739639e-01  1.1913559617992468e-01  1.1914607387312048e-01  1.1918563434249110e-01  1.1925249241169775e-01  1.1934466010063238e-01  1.1945948939940808e-01  1.1959380779732086e-01  1.1974406176412271e-01  1.1990644123938213e-01  1.2007697765309140e-01  1.2025161468589440e-01  1.2042625725959499e-01  1.2059680865777053e-01  1.2075920786517763e-01  1.2090947920988243e-01  1.2104380416570024e-01  1.2115862068714983e-01  1.2125074912692202e-01  1.2131753747829183e-01  1.2135700414959529e-01  1.2136746753417674e-01  1.1914971041176294e-01  1.1916002416548832e-01  1.1919894846911804e-01  1.1926479609545766e-01  1.1935563966284332e-01  1.1946889687304316e-01  1.1960145986722286e-01  1.1974983171419934e-01  1.1991024714960923e-01  1.2007877046932906e-01  1.2025136918212669e-01  1.2042396789492428e-01  1.2059249121464413e-01  1.2075290665005400e-01  1.2090127849703045e-01  1.2103384149121019e-01  1.2114709870141005e-01  1.2123794226879567e-01  1.2130378989513529e-01  1.2134271419876499e-01  1.2135302795249035e-01  1.1913527083007661e-01  1.1914573421465806e-01  1.1918520088596153e-01  1.1925198923733131e-01  1.1934411767710353e-01  1.1945893419855311e-01  1.1959325915437094e-01  1.1974353049907575e-01  1.1990592970648280e-01  1.2007648110465835e-01  1.2025112367835900e-01  1.2042576071116198e-01  1.2059629712487123e-01  1.2075867660013059e-01  1.2090893056693243e-01  1.2104324896484524e-01  1.2115807826362099e-01  1.2125024595255560e-01  1.2131710402176221e-01  1.2135666449113282e-01  1.2136714218432862e-01  1.1909182258685697e-01  1.1910275963479995e-01  1.1914398439305658e-01  1.1921372425839491e-01  1.1930981855152792e-01  1.1942939935865958e-01  1.1956906999499067e-01  1.1972507628195103e-01  1.1989344696109981e-01  1.2007009554918346e-01  1.2025088458087646e-01  1.2043166075399121e-01  1.2060827425500295e-01  1.2077659766320291e-01  1.2093255980145518e-01  1.2107220781304509e-01  1.2119180618378901e-01  1.2128797400912092e-01  1.2135785242449915e-01  1.2139926796218310e-01  1.2141023363558226e-01  1.1901799963132569e-01  1.1902976786914013e-01  1.1907408849082288e-01  1.1914897944153363e-01  1.1925194288882407e-01  1.1937971487390822e-01  1.1952850991902012e-01  1.1969424005157693e-01  1.1987267961222317e-01  1.2005956858094852e-01  1.2025066020783982e-01  1.2044172790550696e-01  1.2062855081049008e-01  1.2080689880439356e-01  1.2097253760691423e-01  1.2112127304463044e-01  1.2124904958959715e-01  1.2135210962418130e-01  1.2142720574298094e-01  1.2147182098456009e-01  1.2148363211816318e-01  1.1891142377366185e-01  1.1892444418516836e-01  1.1897343022473603e-01  1.1905602498902926e-01  1.1916916907649365e-01  1.1930895680089623e-01  1.1947099344599690e-01  1.1965069124431155e-01  1.1984346791048993e-01  1.2004484496692480e-01  1.2025046288121446e-01  1.2045603973278143e-01  1.2065730197700893e-01  1.2084991483460115e-01  1.2102943925147293e-01  1.2119134273975747e-01  1.2133109024964821e-01  1.2144433340789172e-01  1.2152719532146103e-01  1.2157659148764352e-01  1.2158966880412038e-01  1.1876851392264673e-01  1.1878331497939516e-01  1.1883892841769672e-01  1.1893236777181805e-01  1.1905966673925983e-01  1.1921591836485465e-01  1.1939581995477896e-01  1.1959408513284414e-01  1.1980567997296726e-01  1.2002589734052144e-01  1.2025031128696517e-01  1.2047465839490934e-01  1.2069468634000670e-01  1.2090600297653600e-01  1.2110395784224227e-01  1.2128359284915216e-01  1.2143970575845883e-01  1.2156707021732747e-01  1.2166082930171350e-01  1.2171698698891914e-01  1.2173185821534765e-01  1.1858416077310183e-01  1.1860144846321620e-01  1.1866630058976799e-01  1.1877467739201272e-01  1.1892114241022869e-01  1.1909923589172774e-01  1.1930233128537183e-01  1.1952421074222282e-01  1.1975932263549954e-01  1.2000278556409458e-01  1.2025023293507725e-01  1.2049757674193595e-01  1.2074074165204707e-01  1.2097540198264384e-01  1.2119675168098569e-01  1.2139935074614149e-01  1.2157711634955094e-01  1.2172354974762117e-01  1.2183227955758885e-01  1.2189783945128223e-01  1.2191520933350436e-01  1.1835117926093969e-01  1.1837195682683313e-01  1.1844974796299550e-01  1.1857870542148297e-01  1.1875096102512459e-01  1.1895762898334301e-01  1.1919018167102868e-01  1.1944122634888643e-01  1.1970470842331324e-01  1.1997574233405635e-01  1.2025026599084145e-01  1.2052463785937038e-01  1.2079522682991405e-01  1.2105800948461855e-01  1.2130818688336420e-01  1.2153985905552342e-01  1.2174585233711907e-01  1.2191786456460832e-01  1.2204716782474240e-01  1.2212587632498455e-01  1.2214674713344872e-01  1.1805935090925951e-01  1.1808515990320410e-01  1.1818147407928770e-01  1.1833923606922536e-01  1.1854643701885106e-01  1.1879034999585303e-01  1.1905978487485785e-01  1.1934601465536956e-01  1.1964268931547427e-01  1.1994528617176842e-01  1.2025045876140809e-01  1.2055542395189511e-01  1.2085739858639882e-01  1.2115304926042177e-01  1.2143792024113716e-01  1.2170584662184419e-01  1.2194844779577958e-01  1.2215497423521983e-01  1.2231299476022635e-01  1.2241050700526976e-01  1.2243640698875607e-01  1.1769364758623790e-01  1.1772717339656261e-01  1.1785094397946753e-01  1.1805017947097733e-01  1.1830550330572229e-01  1.1859801276163114e-01  1.1891302455558832e-01  1.1924068077847128e-01  1.1957495234751116e-01  1.1991235269551684e-01  1.2025086387122771e-01  1.2058911746495318e-01  1.2092572231496712e-01  1.2125860642626383e-01  1.2158425515053764e-01  1.2189677095309817e-01  1.2218677328193024e-01  1.2244049243300434e-01  1.2263977335580833e-01  1.2276518113802215e-01  1.2279864020934583e-01  1.1723135342037147e-01  1.1727747735349260e-01  1.1744363883928230e-01  1.1770515561190317e-01  1.1802824034097159e-01  1.1838408033951935e-01  1.1875430231364900e-01  1.1912916858176832e-01  1.1950433284157341e-01  1.1987841557675281e-01  1.2025152388757154e-01  1.2062435371724316e-01  1.2099754563320549e-01  1.2137104121969405e-01  1.2174321315849329e-01  1.2210953752225245e-01  1.2246066396859143e-01  1.2277979921890354e-01  1.2304084955710586e-01  1.2320994742413362e-01  1.2325530988904652e-01  1.1664246320344143e-01  1.1670317961928010e-01  1.1693863640978100e-01  1.1729989375536413e-01  1.1772035606583424e-01  1.1815734215180806e-01  1.1859185660272031e-01  1.1901784497715454e-01  1.1943503141679458e-01  1.1984554258694056e-01  1.2025244879762652e-01  1.2065911323033800e-01  1.2106882054793856e-01  1.2148436994767020e-01  1.2190732612127925e-01  1.2233652500485384e-01  1.2276518250694886e-01  1.2317562149808341e-01  1.2353300808096689e-01  1.2377700760383401e-01  1.2383990221656652e-01  1.1591264837381483e-01  1.1593488218962041e-01  1.1630637645290418e-01  1.1684156257725359e-01  1.1740045419659471e-01  1.1793522219635401e-01  1.1843882989988182e-01  1.1891567971509739e-01  1.1937253959771417e-01  1.1981631201060086e-01  1.2025359693754319e-01  1.2069074573450056e-01  1.2113404315330951e-01  1.2158984183189243e-01  1.2206439548571671e-01  1.2256275752395035e-01  1.2308560191529513e-01  1.2362271141154711e-01  1.2413182489833624e-01  1.2452154899785406e-01  1.2460112207650012e-01  1.1500839544290703e-01  1.1477814138512966e-01  1.1553550059728271e-01  1.1637829383648680e-01  1.1711073076944020e-01  1.1774560671065354e-01  1.1831274404719508e-01  1.1883344377754139e-01  1.1932304595312815e-01  1.1979350704522274e-01  1.2025485666290051e-01  1.2071622729337277e-01  1.2118672711391776e-01  1.2167629515950276e-01  1.2219665573143615e-01  1.2276232886094714e-01  1.2339024345481341e-01  1.2409081390552654e-01  1.2483845744530721e-01  1.2551578140949202e-01  1.2564110633583533e-01  1.1254712956741550e-01  1.1292548108359994e-01  1.1482263622957638e-01  1.1604864259638840e-01  1.1691666320259508e-01  1.1762129586335554e-01  1.1823174665535097e-01  1.1878148177377167e-01  1.1929215407631547e-01  1.1977946938566283e-01  1.2025590390366786e-01  1.2073252281236713e-01  1.2122042078812578e-01  1.2173217212450745e-01  1.2228373544865304e-01  1.2289768381357524e-01  1.2361007304087576e-01  1.2448300288083686e-01  1.2558717067634678e-01  1.2670496275317919e-01  1.2763408489800088e-01  9.8030820603704744e-02  1.1226351005877711e-01  1.1500749937945411e-01  1.1602441333715649e-01  1.1686450659616514e-01  1.1758584551984651e-01  1.1820941180859890e-01  1.1876731642869032e-01  1.1928370425595428e-01  1.1977555394072585e-01  1.2025603309598046e-01  1.2073673067686037e-01  1.2122927923349824e-01  1.2174698339986811e-01  1.2230703374218016e-01  1.2293398106946223e-01  1.2366421170672097e-01  1.2455128650105621e-01  1.2574472836155806e-01  1.2829370690704056e-01  1.3532007232221566e-01  </DataArray> 
</PointData> 
</Piece>
</UnstructuredGrid>
</VTKFile>