<?xml version="1.0"?>
<VTKFile type="UnstructuredGrid"  version="0.1"  >
<UnstructuredGrid>
<Piece  NumberOfPoints="651" NumberOfCells="1200">
<Points>
<DataArray  type="Float64"  NumberOfComponents="3"  format="ascii">0 0 0  50000 0 0  100000 0 0  150000 0 0  200000 0 0  250000 0 0  300000 0 0  350000 0 0  400000 0 0  450000 0 0  500000 0 0  550000 0 0  600000 0 0  650000 0 0  700000 0 0  750000 0 0  800000 0 0  850000 0 0  900000 0 0  950000 0 0  1000000 0 0  0 50000 0  50000 50000 0  100000 50000 0  150000 50000 0  200000 50000 0  250000 50000 0  300000 50000 0  350000 50000 0  400000 50000 0  450000 50000 0  500000 50000 0  550000 50000 0  600000 50000 0  650000 50000 0  700000 50000 0  750000 50000 0  800000 50000 0  850000 50000 0  900000 50000 0  950000 50000 0  1000000 50000 0  0 100000 0  50000 100000 0  100000 100000 0  150000 100000 0  200000 100000 0  250000 100000 0  300000 100000 0  350000 100000 0  400000 100000 0  450000 100000 0  500000 100000 0  550000 100000 0  600000 100000 0  650000 100000 0  700000 100000 0  750000 100000 0  800000 100000 0  850000 100000 0  900000 100000 0  950000 100000 0  1000000 100000 0  0 150000 0  50000 150000 0  100000 150000 0  150000 150000 0  200000 150000 0  250000 150000 0  300000 150000 0  350000 150000 0  400000 150000 0  450000 150000 0  500000 150000 0  550000 150000 0  600000 150000 0  650000 150000 0  700000 150000 0  750000 150000 0  800000 150000 0  850000 150000 0  900000 150000 0  950000 150000 0  1000000 150000 0  0 200000 0  50000 200000 0  100000 200000 0  150000 200000 0  200000 200000 0  250000 200000 0  300000 200000 0  350000 200000 0  400000 200000 0  450000 200000 0  500000 200000 0  550000 200000 0  600000 200000 0  650000 200000 0  700000 200000 0  750000 200000 0  800000 200000 0  850000 200000 0  900000 200000 0  950000 200000 0  1000000 200000 0  0 250000 0  50000 250000 0  100000 250000 0  150000 250000 0  200000 250000 0  250000 250000 0  300000 250000 0  350000 250000 0  400000 250000 0  450000 250000 0  500000 250000 0  550000 250000 0  600000 250000 0  650000 250000 0  700000 250000 0  750000 250000 0  800000 250000 0  850000 250000 0  900000 250000 0  950000 250000 0  1000000 250000 0  0 300000 0  50000 300000 0  100000 300000 0  150000 300000 0  200000 300000 0  250000 300000 0  300000 300000 0  350000 300000 0  400000 300000 0  450000 300000 0  500000 300000 0  550000 300000 0  600000 300000 0  650000 300000 0  700000 300000 0  750000 300000 0  800000 300000 0  850000 300000 0  900000 300000 0  950000 300000 0  1000000 300000 0  0 350000 0  50000 350000 0  100000 350000 0  150000 350000 0  200000 350000 0  250000 350000 0  300000 350000 0  350000 350000 0  400000 350000 0  450000 350000 0  500000 350000 0  550000 350000 0  600000 350000 0  650000 350000 0  700000 350000 0  750000 350000 0  800000 350000 0  850000 350000 0  900000 350000 0  950000 350000 0  1000000 350000 0  0 400000 0  50000 400000 0  100000 400000 0  150000 400000 0  200000 400000 0  250000 400000 0  300000 400000 0  350000 400000 0  400000 400000 0  450000 400000 0  500000 400000 0  550000 400000 0  600000 400000 0  650000 400000 0  700000 400000 0  750000 400000 0  800000 400000 0  850000 400000 0  900000 400000 0  950000 400000 0  1000000 400000 0  0 450000 0  50000 450000 0  100000 450000 0  150000 450000 0  200000 450000 0  250000 450000 0  300000 450000 0  350000 450000 0  400000 450000 0  450000 450000 0  500000 450000 0  550000 450000 0  600000 450000 0  650000 450000 0  700000 450000 0  750000 450000 0  800000 450000 0  850000 450000 0  900000 450000 0  950000 450000 0  1000000 450000 0  0 500000 0  50000 500000 0  100000 500000 0  150000 500000 0  200000 500000 0  250000 500000 0  300000 500000 0  350000 500000 0  400000 500000 0  450000 500000 0  500000 500000 0  550000 500000 0  600000 500000 0  650000 500000 0  700000 500000 0  750000 500000 0  800000 500000 0  850000 500000 0  900000 500000 0  950000 500000 0  1000000 500000 0  0 550000 0  50000 550000 0  100000 550000 0  150000 550000 0  200000 550000 0  250000 550000 0  300000 550000 0  350000 550000 0  400000 550000 0  450000 550000 0  500000 550000 0  550000 550000 0  600000 550000 0  650000 550000 0  700000 550000 0  750000 550000 0  800000 550000 0  850000 550000 0  900000 550000 0  950000 550000 0  1000000 550000 0  0 600000 0  50000 600000 0  100000 600000 0  150000 600000 0  200000 600000 0  250000 600000 0  300000 600000 0  350000 600000 0  400000 600000 0  450000 600000 0  500000 600000 0  550000 600000 0  600000 600000 0  650000 600000 0  700000 600000 0  750000 600000 0  800000 600000 0  850000 600000 0  900000 600000 0  950000 600000 0  1000000 600000 0  0 650000 0  50000 650000 0  100000 650000 0  150000 650000 0  200000 650000 0  250000 650000 0  300000 650000 0  350000 650000 0  400000 650000 0  450000 650000 0  500000 650000 0  550000 650000 0  600000 650000 0  650000 650000 0  700000 650000 0  750000 650000 0  800000 650000 0  850000 650000 0  900000 650000 0  950000 650000 0  1000000 650000 0  0 700000 0  50000 700000 0  100000 700000 0  150000 700000 0  200000 700000 0  250000 700000 0  300000 700000 0  350000 700000 0  400000 700000 0  450000 700000 0  500000 700000 0  550000 700000 0  600000 700000 0  650000 700000 0  700000 700000 0  750000 700000 0  800000 700000 0  850000 700000 0  900000 700000 0  950000 700000 0  1000000 700000 0  0 750000 0  50000 750000 0  100000 750000 0  150000 750000 0  200000 750000 0  250000 750000 0  300000 750000 0  350000 750000 0  400000 750000 0  450000 750000 0  500000 750000 0  550000 750000 0  600000 750000 0  650000 750000 0  700000 750000 0  750000 750000 0  800000 750000 0  850000 750000 0  900000 750000 0  950000 750000 0  1000000 750000 0  0 800000 0  50000 800000 0  100000 800000 0  150000 800000 0  200000 800000 0  250000 800000 0  300000 800000 0  350000 800000 0  400000 800000 0  450000 800000 0  500000 800000 0  550000 800000 0  600000 800000 0  650000 800000 0  700000 800000 0  750000 800000 0  800000 800000 0  850000 800000 0  900000 800000 0  950000 800000 0  1000000 800000 0  0 850000 0  50000 850000 0  100000 850000 0  150000 850000 0  200000 850000 0  250000 850000 0  300000 850000 0  350000 850000 0  400000 850000 0  450000 850000 0  500000 850000 0  550000 850000 0  600000 850000 0  650000 850000 0  700000 850000 0  750000 850000 0  800000 850000 0  850000 850000 0  900000 850000 0  950000 850000 0  1000000 850000 0  0 900000 0  50000 900000 0  100000 900000 0  150000 900000 0  200000 900000 0  250000 900000 0  300000 900000 0  350000 900000 0  400000 900000 0  450000 900000 0  500000 900000 0  550000 900000 0  600000 900000 0  650000 900000 0  700000 900000 0  750000 900000 0  800000 900000 0  850000 900000 0  900000 900000 0  950000 900000 0  1000000 900000 0  0 950000 0  50000 950000 0  100000 950000 0  150000 950000 0  200000 950000 0  250000 950000 0  300000 950000 0  350000 950000 0  400000 950000 0  450000 950000 0  500000 950000 0  550000 950000 0  600000 950000 0  650000 950000 0  700000 950000 0  750000 950000 0  800000 950000 0  850000 950000 0  900000 950000 0  950000 950000 0  1000000 950000 0  0 1000000 0  50000 1000000 0  100000 1000000 0  150000 1000000 0  200000 1000000 0  250000 1000000 0  300000 1000000 0  350000 1000000 0  400000 1000000 0  450000 1000000 0  500000 1000000 0  550000 1000000 0  600000 1000000 0  650000 1000000 0  700000 1000000 0  750000 1000000 0  800000 1000000 0  850000 1000000 0  900000 1000000 0  950000 1000000 0  1000000 1000000 0  0 1050000 0  50000 1050000 0  100000 1050000 0  150000 1050000 0  200000 1050000 0  250000 1050000 0  300000 1050000 0  350000 1050000 0  400000 1050000 0  450000 1050000 0  500000 1050000 0  550000 1050000 0  600000 1050000 0  650000 1050000 0  700000 1050000 0  750000 1050000 0  800000 1050000 0  850000 1050000 0  900000 1050000 0  950000 1050000 0  1000000 1050000 0  0 1100000 0  50000 1100000 0  100000 1100000 0  150000 1100000 0  200000 1100000 0  250000 1100000 0  300000 1100000 0  350000 1100000 0  400000 1100000 0  450000 1100000 0  500000 1100000 0  550000 1100000 0  600000 1100000 0  650000 1100000 0  700000 1100000 0  750000 1100000 0  800000 1100000 0  850000 1100000 0  900000 1100000 0  950000 1100000 0  1000000 1100000 0  0 1150000 0  50000 1150000 0  100000 1150000 0  150000 1150000 0  200000 1150000 0  250000 1150000 0  300000 1150000 0  350000 1150000 0  400000 1150000 0  450000 1150000 0  500000 1150000 0  550000 1150000 0  600000 1150000 0  650000 1150000 0  700000 1150000 0  750000 1150000 0  800000 1150000 0  850000 1150000 0  900000 1150000 0  950000 1150000 0  1000000 1150000 0  0 1200000 0  50000 1200000 0  100000 1200000 0  150000 1200000 0  200000 1200000 0  250000 1200000 0  300000 1200000 0  350000 1200000 0  400000 1200000 0  450000 1200000 0  500000 1200000 0  550000 1200000 0  600000 1200000 0  650000 1200000 0  700000 1200000 0  750000 1200000 0  800000 1200000 0  850000 1200000 0  900000 1200000 0  950000 1200000 0  1000000 1200000 0  0 1250000 0  50000 1250000 0  100000 1250000 0  150000 1250000 0  200000 1250000 0  250000 1250000 0  300000 1250000 0  350000 1250000 0  400000 1250000 0  450000 1250000 0  500000 1250000 0  550000 1250000 0  600000 1250000 0  650000 1250000 0  700000 1250000 0  750000 1250000 0  800000 1250000 0  850000 1250000 0  900000 1250000 0  950000 1250000 0  1000000 1250000 0  0 1300000 0  50000 1300000 0  100000 1300000 0  150000 1300000 0  200000 1300000 0  250000 1300000 0  300000 1300000 0  350000 1300000 0  400000 1300000 0  450000 1300000 0  500000 1300000 0  550000 1300000 0  600000 1300000 0  650000 1300000 0  700000 1300000 0  750000 1300000 0  800000 1300000 0  850000 1300000 0  900000 1300000 0  950000 1300000 0  1000000 1300000 0  0 1350000 0  50000 1350000 0  100000 1350000 0  150000 1350000 0  200000 1350000 0  250000 1350000 0  300000 1350000 0  350000 1350000 0  400000 1350000 0  450000 1350000 0  500000 1350000 0  550000 1350000 0  600000 1350000 0  650000 1350000 0  700000 135
[...]
<PointData  Scalars="f_6001"> 
<DataArray  type="Float64"  Name="f_6001"  format="ascii">1.0540725589824301e-01  1.1252053813317592e-01  1.1514668900387273e-01  1.1637156106809940e-01  1.1727800756813689e-01  1.1802439666025820e-01  1.1866556624968121e-01  1.1923841400826517e-01  1.1976796468481712e-01  1.2027178841590852e-01  1.2076348998573397e-01  1.2125496413069405e-01  1.2175806118514568e-01  1.2228624774205994e-01  1.2285687056478367e-01  1.2349442824127012e-01  1.2423107045096481e-01  1.2508914908573848e-01  1.2614314134803814e-01  1.2898412001661114e-01  1.4309926445025931e-01  1.1321863184868769e-01  1.1416625997760796e-01  1.1531366478406659e-01  1.1644065885987381e-01  1.1733292856993791e-01  1.1806152796399610e-01  1.1868949367562889e-01  1.1925366067814305e-01  1.1977711532450649e-01  1.2027617542268468e-01  1.2076369804331910e-01  1.2125102781503713e-01  1.2174947845740677e-01  1.2227180224141712e-01  1.2283404094706377e-01  1.2345831857006445e-01  1.2417902281044858e-01  1.2506745382344092e-01  1.2631989927212237e-01  1.2824101236752602e-01  1.2868503692020763e-01  1.1525883831802301e-01  1.1538762905032104e-01  1.1607828795160444e-01  1.1684157738266435e-01  1.1755774039364245e-01  1.1819999900666053e-01  1.1877862972268886e-01  1.1931089463169635e-01  1.1981165746985147e-01  1.2029291579761885e-01  1.2076483503331736e-01  1.2123672904439613e-01  1.2171793570353170e-01  1.2221870954604168e-01  1.2275127896790035e-01  1.2333135706149026e-01  1.2398080191244261e-01  1.2473004115328831e-01  1.2559136146323308e-01  1.2636545990980072e-01  1.2613866809791419e-01  1.1632182622005767e-01  1.1640237176482347e-01  1.1680007818069840e-01  1.1732037972628070e-01  1.1786955690688319e-01  1.1840423107666004e-01  1.1891393805794774e-01  1.1939932694774508e-01  1.1986554048851975e-01  1.2031896864003182e-01  1.2076610742697105e-01  1.2121338355353463e-01  1.2166729187468525e-01  1.2213458281409588e-01  1.2262232080823880e-01  1.2313744203807168e-01  1.2368446342298962e-01  1.2425616092794636e-01  1.2480360873190000e-01  1.2518367051821891e-01  1.2520181755033069e-01  1.1709896156444574e-01  1.1716297604378571e-01  1.1741221001344399e-01  1.1777763410945810e-01  1.1819732705142325e-01  1.1863568880846863e-01  1.1907463960184939e-01  1.1950723100833897e-01  1.1993226278376141e-01  1.2035132656862506e-01  1.2076728068858140e-01  1.2118348251853470e-01  1.2160337103338080e-01  1.2203008709451722e-01  1.2246580854539826e-01  1.2291025720480082e-01  1.2335723956493329e-01  1.2378731151713654e-01  1.2415677450990578e-01  1.2439724422954164e-01  1.2445772395470256e-01  1.1769625197403663e-01  1.1774263163038870e-01  1.1791546149671135e-01  1.1818241132279458e-01  1.1850877886773925e-01  1.1886787149912259e-01  1.1924252146850717e-01  1.1962316864075784e-01  1.2000518171539289e-01  1.2038689190280402e-01  1.2076823607225499e-01  1.2114986720090271e-01  1.2153249602426315e-01  1.2191623193447450e-01  1.2229966426937469e-01  1.2267834677605995e-01  1.2304231406014074e-01  1.2337275794182981e-01  1.2364017456509016e-01  1.2380995498802955e-01  1.2385700829592976e-01  1.1816310358257744e-01  1.1819736175340546e-01  1.1832559912941787e-01  1.1852939826039115e-01  1.1878888734508601e-01  1.1908548474219043e-01  1.1940511315720308e-01  1.1973818113642182e-01  1.2007865696233302e-01  1.2042294433776005e-01  1.2076892213752793e-01  1.2111516596735408e-01  1.2146027519417878e-01  1.2180218517043297e-01  1.2213732898190539e-01  1.2245953802486990e-01  1.2275872495959858e-01  1.2301986422462280e-01  1.2322361815700525e-01  1.2335019235642028e-01  1.2338456279842498e-01  1.1853348760120137e-01  1.1856001733309973e-01  1.1865976203491445e-01  1.1882138466140045e-01  1.1903261939022571e-01  1.1928074997824331e-01  1.1955478342063879e-01  1.1984615048413384e-01  1.2014854695310959e-01  1.2045741540941894e-01  1.2076934574412485e-01  1.2108149048932705e-01  1.2139100227038259e-01  1.2169445756999379e-01  1.2198722961827113e-01  1.2226282209445898e-01  1.2251230701044871e-01  1.2272423840963914e-01  1.2288560564722820e-01  1.2298414576288336e-01  1.2301060688553629e-01  1.1882968974166341e-01  1.1885107450139995e-01  1.1893160123169112e-01  1.1906386737831909e-01  1.1923981105584795e-01  1.1945050849358314e-01  1.1968746916325144e-01  1.1994335752348083e-01  1.2021214023960791e-01  1.2048890942813234e-01  1.2076954986227062e-01  1.2105034728538960e-01  1.2132757666425339e-01  1.2159708275408806e-01  1.2185386797906951e-01  1.2209173905560769e-01  1.2230313451646255e-01  1.2247933406507375e-01  1.2261125548677505e-01  1.2269086017802072e-01  1.2271216198875343e-01  1.1906646983411438e-01  1.1908427202384218e-01  1.1915135543538125e-01  1.1926258685951377e-01  1.1941237560409347e-01  1.1959420796180865e-01  1.1980143833959880e-01  1.2002784636570064e-01  1.2026786896307146e-01  1.2051659108551133e-01  1.2076958864261354e-01  1.2102269334627322e-01  1.2127172379877388e-01  1.2151221359945710e-01  1.2173916982154111e-01  1.2194691423052868e-01  1.2212908779232426e-01  1.2227891480555686e-01  1.2238979227721726e-01  1.2245616341445134e-01  1.2247388993284246e-01  1.1925397956232983e-01  1.1926922383001541e-01  1.1932669213381958e-01  1.1942261506101536e-01  1.1955290450878299e-01  1.1971259471109799e-01  1.1989634142889534e-01  1.2009882471367649e-01  1.2031497419824820e-01  1.2054003394625894e-01  1.2076951200401927e-01  1.2099905924214964e-01  1.2122431506866488e-01  1.2144075261600602e-01  1.2164355748044742e-01  1.2182758123134158e-01  1.2198741768483079e-01  1.2211764472503467e-01  1.2221324595939870e-01  1.2227016594214533e-01  1.2228534453465860e-01  1.1939939789035812e-01  1.1941280513764319e-01  1.1946335784646886e-01  1.1954813666643076e-01  1.1966398539274915e-01  1.1980693987686253e-01  1.1997255357029245e-01  1.2015618875564785e-01  1.2035321021959999e-01  1.2055907819507103e-01  1.2076935943522676e-01  1.2097968320680591e-01  1.2118567013296291e-01  1.2138286143743875e-01  1.2156667674516899e-01  1.2173242966126202e-01  1.2187542844808633e-01  1.2199117919924680e-01  1.2207568863841962e-01  1.2212582777013478e-01  1.2213918112616066e-01  1.1950784433981228e-01  1.1951995476713893e-01  1.1956561721148777e-01  1.1964245376991539e-01  1.1974788862751709e-01  1.1987860102432732e-01  1.2003074834018006e-01  1.2020018315167987e-01  1.2038261616035244e-01  1.2057371698234898e-01  1.2076915941729166e-01  1.2096462666285730e-01  1.2115579601743601e-01  1.2133832414970125e-01  1.2150785419462301e-01  1.2166006451805456e-01  1.2179077443809516e-01  1.2189611283294313e-01  1.2197274220462033e-01  1.2201810732539287e-01  1.2203017679771719e-01  1.1958291139564813e-01  1.1959415589589786e-01  1.1963654538320939e-01  1.1970804551495218e-01  1.1980643184281838e-01  1.1992878075462683e-01  1.2007163472334256e-01  1.2023117350281226e-01  1.2040335452798567e-01  1.2058401418772188e-01  1.2076893130859853e-01  1.2095386177811017e-01  1.2113455789192229e-01  1.2130678814047317e-01  1.2146637317826796e-01  1.2160925154809846e-01  1.2173158386387924e-01  1.2182989644286847e-01  1.2190125652667851e-01  1.2194345337670864e-01  1.2195467040706873e-01  1.1962698208548475e-01  1.1963772691560408e-01  1.1967821900816525e-01  1.1974663012284091e-01  1.1984092562951043e-01  1.1995839745810453e-01  1.2009580110574691e-01  1.2024950237187804e-01  1.2041560468544368e-01  1.2059004934625463e-01  1.2076868788916521e-01  1.2094733219034445e-01  1.2112179244039963e-01  1.2128791534491071e-01  1.2144163490631391e-01  1.2157904586317936e-01  1.2169650528052287e-01  1.2179076134557104e-01  1.2185910195007996e-01  1.2189949929935595e-01  1.2191023036038748e-01  1.1964141579712148e-01  1.1965199304010254e-01  1.1969183482634760e-01  1.1975921276666429e-01  1.1985215434518390e-01  1.1996801868072411e-01  1.2010362735333437e-01  1.2025540401431660e-01  1.2041949788060959e-01  1.2059188384531470e-01  1.2076843780184535e-01  1.2094499175837596e-01  1.2111737772308108e-01  1.2128147158937409e-01  1.2143324825035630e-01  1.2156885692296659e-01  1.2168472125850679e-01  1.2177766283702637e-01  1.2184504077734305e-01  1.2188488256358809e-01  1.2189545980656914e-01  1.1962664524330313e-01  1.1963737630433469e-01  1.1967777365361068e-01  1.1974611425811960e-01  1.1984037032316780e-01  1.1995782974051125e-01  1.2009524069737677e-01  1.2024896025878001e-01  1.2041508316329107e-01  1.2058954341334623e-01  1.2076818771452551e-01  1.2094682625743609e-01  1.2112127091824701e-01  1.2128737323181260e-01  1.2144107449794377e-01  1.2157847814558616e-01  1.2169594997418029e-01  1.2179024548084975e-01  1.2185865659552543e-01  1.2189914868808659e-01  1.2190989351820594e-01  1.1958220519662188e-01  1.1959342222698202e-01  1.1963561907701217e-01  1.1970697916082218e-01  1.1980529173981148e-01  1.1992762405559226e-01  1.2007050242542279e-01  1.2023008746321756e-01  1.2040231771176843e-01  1.2058301382558061e-01  1.2076794429509226e-01  1.2095286141596889e-01  1.2113352107570505e-01  1.2130570210087843e-01  1.2146524088034816e-01  1.2160809484906393e-01  1.2173044376087240e-01  1.2182883008873857e-01  1.2190033022048137e-01  1.2194271970779293e-01  1.2195396420804261e-01  1.1950669880597357e-01  1.1951876827829790e-01  1.1956413339907047e-01  1.1964076277074766e-01  1.1974610116559564e-01  1.1987681108563619e-01  1.2002902140906779e-01  1.2019855145398954e-01  1.2038107958625481e-01  1.2057224894083358e-01  1.2076771618639923e-01  1.2096315862134190e-01  1.2115425944333841e-01  1.2133669245201091e-01  1.2150612726351073e-01  1.2165827457936347e-01  1.2178898697617375e-01  1.2189442183377547e-01  1.2197125839220307e-01  1.2201692083655190e-01  1.2202903126387854e-01  1.1939769447753022e-01  1.1941104783355613e-01  1.1946118696527130e-01  1.1954569640444411e-01  1.1966144715560459e-01  1.1980444594242889e-01  1.1997019885852195e-01  1.2015401416625220e-01  1.2035120547072801e-01  1.2055719239688503e-01  1.2076751616846421e-01  1.2097779740861997e-01  1.2118366538409096e-01  1.2138068684804310e-01  1.2156432203339844e-01  1.2172993572682837e-01  1.2187289021094183e-01  1.2198873893726023e-01  1.2207351775722206e-01  1.2212407046604776e-01  1.2213747771333278e-01  1.1925153106903250e-01  1.1926670966154576e-01  1.1932362964429240e-01  1.1941923087865644e-01  1.1954945791886032e-01  1.1970929437234952e-01  1.1989331812324369e-01  1.2009612298768504e-01  1.2031256053502622e-01  1.2053781636154147e-01  1.2076736359967186e-01  1.2099684165743221e-01  1.2122190140544291e-01  1.2143805089001464e-01  1.2164053417479578e-01  1.2182428089259313e-01  1.2198397109490813e-01  1.2211426054267574e-01  1.2221018346987146e-01  1.2226765177367563e-01  1.2228289604136121e-01  1.1906298567084883e-01  1.1908071218923996e-01  1.1914708332647406e-01  1.1925796079813444e-01  1.1940778781136704e-01  1.1958996137316261e-01  1.1979770578215015e-01  1.2002466200423417e-01  1.2026515180491741e-01  1.2051418225741811e-01  1.2076728696107780e-01  1.2102028451818000e-01  1.2126900664061985e-01  1.2150902923799065e-01  1.2173543726409249e-01  1.2194266764188263e-01  1.2212449999959780e-01  1.2227428874417746e-01  1.2238552016830995e-01  1.2245260357984900e-01  1.2247040576957681e-01  1.1882471361493813e-01  1.1884601542567087e-01  1.1892562011691650e-01  1.1905754153861775e-01  1.1923374108722895e-01  1.1944513654808382e-01  1.1968300762462197e-01  1.1993979284960345e-01  1.2020929893943812e-01  1.2048652831830192e-01  1.2076732574142091e-01  1.2104796617555921e-01  1.2132473536408364e-01  1.2159351808021068e-01  1.2184940644044004e-01  1.2208636711010831e-01  1.2229706454784346e-01  1.2247300822537233e-01  1.2260527437200024e-01  1.2268580110229135e-01  1.2270718586202790e-01  1.1852626871815551e-01  1.1855272984080847e-01  1.1865126995646359e-01  1.1881263719405258e-01  1.1902456859324301e-01  1.1927405350923277e-01  1.1954964598542059e-01  1.1984241803369795e-01  1.2014587333330916e-01  1.2045538511436467e-01  1.2076752985956687e-01  1.2107946019427283e-01  1.2138832865058220e-01  1.2169072511955789e-01  1.2198209218305291e-01  1.2225612562544831e-01  1.2250425621346592e-01  1.2271549094229117e-01  1.2287711356877715e-01  1.2297685827059179e-01  1.2300338800249014e-01  1.1815231280526714e-01  1.1818668324727180e-01  1.1831325744668680e-01  1.1851701137906923e-01  1.1877815064409342e-01  1.1907733757882211e-01  1.1939954662178659e-01  1.1973469043325904e-01  1.2007660040951321e-01  1.2042170963633791e-01  1.2076795346616404e-01  1.2111393126593195e-01  1.2145821864135900e-01  1.2179869446727014e-01  1.2213176244648884e-01  1.2245139086150145e-01  1.2274798825860585e-01  1.2300747734330070e-01  1.2321127647427393e-01  1.2333951385028628e-01  1.2337377202111430e-01  1.1767986730776275e-01  1.1772692061566291e-01  1.1789670103860225e-01  1.1816411766186258e-01  1.1849456154355156e-01  1.1885852882763231e-01  1.1923721133431753e-01  1.1962064366921776e-01  1.2000437957942911e-01  1.2038700840278957e-01  1.2076863953143724e-01  1.2114998370088824e-01  1.2153169388829939e-01  1.2191370696293440e-01  1.2229435413518500e-01  1.2266900410456953e-01  1.2302809673595284e-01  1.2335446428089748e-01  1.2362141410698066e-01  1.2379424397330327e-01  1.2384062362965528e-01  1.1707915164899041e-01  1.1713963137415123e-01  1.1738010109378698e-01  1.1774956408655612e-01  1.1817963603875931e-01  1.1862661839889173e-01  1.1907106705829429e-01  1.1950678850917537e-01  1.1993350457031174e-01  1.2035339308515783e-01  1.2076959491511111e-01  1.2118554903506748e-01  1.2160461281993111e-01  1.2202964459535351e-01  1.2246223600184301e-01  1.2290118679522374e-01  1.2333954855226907e-01  1.2375924149423417e-01  1.2412466559024823e-01  1.2437389955990649e-01  1.2443791403924644e-01  1.1633505805336297e-01  1.1635320508547445e-01  1.1673326687179313e-01  1.1728071467574662e-01  1.1785241218070329e-01  1.1839943356562121e-01  1.1891455479545406e-01  1.1940229278959698e-01  1.1986958372900754e-01  1.2032349205015816e-01  1.2077076817672171e-01  1.2121790696366097e-01  1.2167133511517304e-01  1.2213754865594764e-01  1.2262293754574495e-01  1.2313264452703257e-01  1.2366731869680936e-01  1.2421649587741176e-01  1.2473679742299401e-01  1.2513450383886895e-01  1.2521504938363473e-01  1.1539820750578070e-01  1.1517141569389309e-01  1.1594551414046023e-01  1.1680683445040493e-01  1.1755607369125062e-01  1.1820551854220294e-01  1.1878559663579283e-01  1.1931816605765151e-01  1.1981893990016140e-01  1.2030014655929694e-01  1.2077204057037569e-01  1.2124395980607423e-01  1.2172521813384160e-01  1.2222598097199666e-01  1.2275824588100409e-01  1.2333687659703237e-01  1.2397913521005034e-01  1.2469529822102832e-01  1.2545858765208814e-01  1.2614924655337165e-01  1.2627803728566969e-01  1.1285183868348778e-01  1.1329586323616829e-01  1.1521697633157069e-01  1.1646942178025249e-01  1.1735785279324498e-01  1.1807855703362910e-01  1.1870283465662974e-01  1.1926507336227636e-01  1.1978739714628665e-01  1.2028584778865625e-01  1.2077317756037424e-01  1.2126070018100867e-01  1.2175976027918683e-01  1.2228321492555028e-01  1.2284738192806435e-01  1.2347534763969711e-01  1.2420394703375517e-01  1.2509621674381913e-01  1.2622321081962629e-01  1.2737061562608398e-01  1.2831824375500589e-01  9.8437611153457200e-02  1.1255275558707110e-01  1.1539373425565393e-01  1.1644772651795543e-01  1.1730580515272904e-01  1.1804244736242361e-01  1.1868000503891003e-01  1.1925062786163369e-01  1.1977881441854793e-01  1.2028191147299952e-01  1.2077338561795957e-01  1.2126508718778498e-01  1.2176891091887637e-01  1.2229846159542831e-01  1.2287130935401222e-01  1.2351247894343519e-01  1.2425886803555633e-01  1.2516531453559354e-01  1.2639018659981938e-01  1.2901633747051430e-01  1.3612961970545717e-01  </DataArray> 
</PointData> 
</Piece>
</UnstructuredGrid>
</VTKFile>