<?xml version="1.0"?>
<VTKFile type="UnstructuredGrid"  version="0.1"  >
<UnstructuredGrid>
<Piece  NumberOfPoints="651" NumberOfCells="1200">
<Points>
<DataArray  type="Float64"  NumberOfComponents="3"  format="ascii">0 0 0  50000 0 0  100000 0 0  150000 0 0  200000 0 0  250000 0 0  300000 0 0  350000 0 0  400000 0 0  450000 0 0  500000 0 0  550000 0 0  600000 0 0  650000 0 0  700000 0 0  750000 0 0  800000 0 0  850000 0 0  900000 0 0  950000 0 0  1000000 0 0  0 50000 0  50000 50000 0  100000 50000 0  150000 50000 0  200000 50000 0  250000 50000 0  300000 50000 0  350000 50000 0  400000 50000 0  450000 50000 0  500000 50000 0  550000 50000 0  600000 50000 0  650000 50000 0  700000 50000 0  750000 50000 0  800000 50000 0  850000 50000 0  900000 50000 0  950000 50000 0  1000000 50000 0  0 100000 0  50000 100000 0  100000 100000 0  150000 100000 0  200000 100000 0  250000 100000 0  300000 100000 0  350000 100000 0  400000 100000 0  450000 100000 0  500000 100000 0  550000 100000 0  600000 100000 0  650000 100000 0  700000 100000 0  750000 100000 0  800000 100000 0  850000 100000 0  900000 100000 0  950000 100000 0  1000000 100000 0  0 150000 0  50000 150000 0  100000 150000 0  150000 150000 0  200000 150000 0  250000 150000 0  300000 150000 0  350000 150000 0  400000 150000 0  450000 150000 0  500000 150000 0  550000 150000 0  600000 150000 0  650000 150000 0  700000 150000 0  750000 150000 0  800000 150000 0  850000 150000 0  900000 150000 0  950000 150000 0  1000000 150000 0  0 200000 0  50000 200000 0  100000 200000 0  150000 200000 0  200000 200000 0  250000 200000 0  300000 200000 0  350000 200000 0  400000 200000 0  450000 200000 0  500000 200000 0  550000 200000 0  600000 200000 0  650000 200000 0  700000 200000 0  750000 200000 0  800000 200000 0  850000 200000 0  900000 200000 0  950000 200000 0  1000000 200000 0  0 250000 0  50000 250000 0  100000 250000 0  150000 250000 0  200000 250000 0  250000 250000 0  300000 250000 0  350000 250000 0  400000 250000 0  450000 250000 0  500000 250000 0  550000 250000 0  600000 250000 0  650000 250000 0  700000 250000 0  750000 250000 0  800000 250000 0  850000 250000 0  900000 250000 0  950000 250000 0  1000000 250000 0  0 300000 0  50000 300000 0  100000 300000 0  150000 300000 0  200000 300000 0  250000 300000 0  300000 300000 0  350000 300000 0  400000 300000 0  450000 300000 0  500000 300000 0  550000 300000 0  600000 300000 0  650000 300000 0  700000 300000 0  750000 300000 0  800000 300000 0  850000 300000 0  900000 300000 0  950000 300000 0  1000000 300000 0  0 350000 0  50000 350000 0  100000 350000 0  150000 350000 0  200000 350000 0  250000 350000 0  300000 350000 0  350000 350000 0  400000 350000 0  450000 350000 0  500000 350000 0  550000 350000 0  600000 350000 0  650000 350000 0  700000 350000 0  750000 350000 0  800000 350000 0  850000 350000 0  900000 350000 0  950000 350000 0  1000000 350000 0  0 400000 0  50000 400000 0  100000 400000 0  150000 400000 0  200000 400000 0  250000 400000 0  300000 400000 0  350000 400000 0  400000 400000 0  450000 400000 0  500000 400000 0  550000 400000 0  600000 400000 0  650000 400000 0  700000 400000 0  750000 400000 0  800000 400000 0  850000 400000 0  900000 400000 0  950000 400000 0  1000000 400000 0  0 450000 0  50000 450000 0  100000 450000 0  150000 450000 0  200000 450000 0  250000 450000 0  300000 450000 0  350000 450000 0  400000 450000 0  450000 450000 0  500000 450000 0  550000 450000 0  600000 450000 0  650000 450000 0  700000 450000 0  750000 450000 0  800000 450000 0  850000 450000 0  900000 450000 0  950000 450000 0  1000000 450000 0  0 500000 0  50000 500000 0  100000 500000 0  150000 500000 0  200000 500000 0  250000 500000 0  300000 500000 0  350000 500000 0  400000 500000 0  450000 500000 0  500000 500000 0  550000 500000 0  600000 500000 0  650000 500000 0  700000 500000 0  750000 500000 0  800000 500000 0  850000 500000 0  900000 500000 0  950000 500000 0  1000000 500000 0  0 550000 0  50000 550000 0  100000 550000 0  150000 550000 0  200000 550000 0  250000 550000 0  300000 550000 0  350000 550000 0  400000 550000 0  450000 550000 0  500000 550000 0  550000 550000 0  600000 550000 0  650000 550000 0  700000 550000 0  750000 550000 0  800000 550000 0  850000 550000 0  900000 550000 0  950000 550000 0  1000000 550000 0  0 600000 0  50000 600000 0  100000 600000 0  150000 600000 0  200000 600000 0  250000 600000 0  300000 600000 0  350000 600000 0  400000 600000 0  450000 600000 0  500000 600000 0  550000 600000 0  600000 600000 0  650000 600000 0  700000 600000 0  750000 600000 0  800000 600000 0  850000 600000 0  900000 600000 0  950000 600000 0  1000000 600000 0  0 650000 0  50000 650000 0  100000 650000 0  150000 650000 0  200000 650000 0  250000 650000 0  300000 650000 0  350000 650000 0  400000 650000 0  450000 650000 0  500000 650000 0  550000 650000 0  600000 650000 0  650000 650000 0  700000 650000 0  750000 650000 0  800000 650000 0  850000 650000 0  900000 650000 0  950000 650000 0  1000000 650000 0  0 700000 0  50000 700000 0  100000 700000 0  150000 700000 0  200000 700000 0  250000 700000 0  300000 700000 0  350000 700000 0  400000 700000 0  450000 700000 0  500000 700000 0  550000 700000 0  600000 700000 0  650000 700000 0  700000 700000 0  750000 700000 0  800000 700000 0  850000 700000 0  900000 700000 0  950000 700000 0  1000000 700000 0  0 750000 0  50000 750000 0  100000 750000 0  150000 750000 0  200000 750000 0  250000 750000 0  300000 750000 0  350000 750000 0  400000 750000 0  450000 750000 0  500000 750000 0  550000 750000 0  600000 750000 0  650000 750000 0  700000 750000 0  750000 750000 0  800000 750000 0  850000 750000 0  900000 750000 0  950000 750000 0  1000000 750000 0  0 800000 0  50000 800000 0  100000 800000 0  150000 800000 0  200000 800000 0  250000 800000 0  300000 800000 0  350000 800000 0  400000 800000 0  450000 800000 0  500000 800000 0  550000 800000 0  600000 800000 0  650000 800000 0  700000 800000 0  750000 800000 0  800000 800000 0  850000 800000 0  900000 800000 0  950000 800000 0  1000000 800000 0  0 850000 0  50000 850000 0  100000 850000 0  150000 850000 0  200000 850000 0  250000 850000 0  300000 850000 0  350000 850000 0  400000 850000 0  450000 850000 0  500000 850000 0  550000 850000 0  600000 850000 0  650000 850000 0  700000 850000 0  750000 850000 0  800000 850000 0  850000 850000 0  900000 850000 0  950000 850000 0  1000000 850000 0  0 900000 0  50000 900000 0  100000 900000 0  150000 900000 0  200000 900000 0  250000 900000 0  300000 900000 0  350000 900000 0  400000 900000 0  450000 900000 0  500000 900000 0  550000 900000 0  600000 900000 0  650000 900000 0  700000 900000 0  750000 900000 0  800000 900000 0  850000 900000 0  900000 900000 0  950000 900000 0  1000000 900000 0  0 950000 0  50000 950000 0  100000 950000 0  150000 950000 0  200000 950000 0  250000 950000 0  300000 950000 0  350000 950000 0  400000 950000 0  450000 950000 0  500000 950000 0  550000 950000 0  600000 950000 0  650000 950000 0  700000 950000 0  750000 950000 0  800000 950000 0  850000 950000 0  900000 950000 0  950000 950000 0  1000000 950000 0  0 1000000 0  50000 1000000 0  100000 1000000 0  150000 1000000 0  200000 1000000 0  250000 1000000 0  300000 1000000 0  350000 1000000 0  400000 1000000 0  450000 1000000 0  500000 1000000 0  550000 1000000 0  600000 1000000 0  650000 1000000 0  700000 1000000 0  750000 1000000 0  800000 1000000 0  850000 1000000 0  900000 1000000 0  950000 1000000 0  1000000 1000000 0  0 1050000 0  50000 1050000 0  100000 1050000 0  150000 1050000 0  200000 1050000 0  250000 1050000 0  300000 1050000 0  350000 1050000 0  400000 1050000 0  450000 1050000 0  500000 1050000 0  550000 1050000 0  600000 1050000 0  650000 1050000 0  700000 1050000 0  750000 1050000 0  800000 1050000 0  850000 1050000 0  900000 1050000 0  950000 1050000 0  1000000 1050000 0  0 1100000 0  50000 1100000 0  100000 1100000 0  150000 1100000 0  200000 1100000 0  250000 1100000 0  300000 1100000 0  350000 1100000 0  400000 1100000 0  450000 1100000 0  500000 1100000 0  550000 1100000 0  600000 1100000 0  650000 1100000 0  700000 1100000 0  750000 1100000 0  800000 1100000 0  850000 1100000 0  900000 1100000 0  950000 1100000 0  1000000 1100000 0  0 1150000 0  50000 1150000 0  100000 1150000 0  150000 1150000 0  200000 1150000 0  250000 1150000 0  300000 1150000 0  350000 1150000 0  400000 1150000 0  450000 1150000 0  500000 1150000 0  550000 1150000 0  600000 1150000 0  650000 1150000 0  700000 1150000 0  750000 1150000 0  800000 1150000 0  850000 1150000 0  900000 1150000 0  950000 1150000 0  1000000 1150000 0  0 1200000 0  50000 1200000 0  100000 1200000 0  150000 1200000 0  200000 1200000 0  250000 1200000 0  300000 1200000 0  350000 1200000 0  400000 1200000 0  450000 1200000 0  500000 1200000 0  550000 1200000 0  600000 1200000 0  650000 1200000 0  700000 1200000 0  750000 1200000 0  800000 1200000 0  850000 1200000 0  900000 1200000 0  950000 1200000 0  1000000 1200000 0  0 1250000 0  50000 1250000 0  100000 1250000 0  150000 1250000 0  200000 1250000 0  250000 1250000 0  300000 1250000 0  350000 1250000 0  400000 1250000 0  450000 1250000 0  500000 1250000 0  550000 1250000 0  600000 1250000 0  650000 1250000 0  700000 1250000 0  750000 1250000 0  800000 1250000 0  850000 1250000 0  900000 1250000 0  950000 1250000 0  1000000 1250000 0  0 1300000 0  50000 1300000 0  100000 1300000 0  150000 1300000 0  200000 1300000 0  250000 1300000 0  300000 1300000 0  350000 1300000 0  400000 1300000 0  450000 1300000 0  500000 1300000 0  550000 1300000 0  600000 1300000 0  650000 1300000 0  700000 1300000 0  750000 1300000 0  800000 1300000 0  850000 1300000 0  900000 1300000 0  950000 1300000 0  1000000 1300000 0  0 1350000 0  50000 1350000 0  100000 1350000 0  150000 1350000 0  200000 1350000 0  250000 1350000 0  300000 1350000 0  350000 1350000 0  400000 1350000 0  450000 1350000 0  500000 1350000 0  550000 1350000 0  600000 1350000 0  650000 1350000 0  700000 135
[...]
<PointData  Scalars="f_6001"> 
<DataArray  type="Float64"  Name="f_6001"  format="ascii">1.0577794644938678e-01  1.1257917902130579e-01  1.1524583482767083e-01  1.1651332139121767e-01  1.1742928874543007e-01  1.1817734594533361e-01  1.1882055216796115e-01  1.1939594080158247e-01  1.1992805971728128e-01  1.2043436975625359e-01  1.2092850837225604e-01  1.2142242874607978e-01  1.2192804272535737e-01  1.2245884431811487e-01  1.2303196501409940e-01  1.2367112086621929e-01  1.2441045178571183e-01  1.2530069532665106e-01  1.2649523314991998e-01  1.2930421287000829e-01  1.4080755927820196e-01  1.1328271421660227e-01  1.1427391399204009e-01  1.1545652306339674e-01  1.1658738928911741e-01  1.1748143611058751e-01  1.1821323295387035e-01  1.1884432851556592e-01  1.1941127402914892e-01  1.1993729167646758e-01  1.2043880380625294e-01  1.2092873131284534e-01  1.2141847115419335e-01  1.2191938724138303e-01  1.2244428805512438e-01  1.2300936321478081e-01  1.2363746084304272e-01  1.2436534102304428e-01  1.2526440053771673e-01  1.2649637757512053e-01  1.2828250039949116e-01  1.2900633559017596e-01  1.1536280092539147e-01  1.1553172824923547e-01  1.1622395745260738e-01  1.1698792085520192e-01  1.1770694307948311e-01  1.1835230228747333e-01  1.1893382823923415e-01  1.1946875231450919e-01  1.1997199521836026e-01  1.2045562759579065e-01  1.2092987477076965e-01  1.2140410021083481e-01  1.2188769331381014e-01  1.2239098409881832e-01  1.2292634738345920e-01  1.2350969782345762e-01  1.2416236308394293e-01  1.2491046600930629e-01  1.2575924778286077e-01  1.2654264089799694e-01  1.2648841879152098e-01  1.1646469158232126e-01  1.1654889909172783e-01  1.1694627831620416e-01  1.1746827115523335e-01  1.1802008373569917e-01  1.1855752507137973e-01  1.1906981116907381e-01  1.1955761055496020e-01  1.2002612713391171e-01  1.2048179209950099e-01  1.2093113594133453e-01  1.2138061935616834e-01  1.2183677290153568e-01  1.2230638418002485e-01  1.2279653040757643e-01  1.2331400195328882e-01  1.2386270355064814e-01  1.2443468396192717e-01  1.2498441603280558e-01  1.2538100201098615e-01  1.2541251325608646e-01  1.1724918061121690e-01  1.1731068703948946e-01  1.1756084063343718e-01  1.1792776398311695e-01  1.1834955795861996e-01  1.1879015019077631e-01  1.1923129914000333e-01  1.1966603647377169e-01  1.2009316730680118e-01  1.2051429671798317e-01  1.2093229914538010e-01  1.2135054829994205e-01  1.2177249661615357e-01  1.2220128602124417e-01  1.2263905806981289e-01  1.2308542664975099e-01  1.2353409513530550e-01  1.2396604310322237e-01  1.2433913964594538e-01  1.2458443177725935e-01  1.2463800661559091e-01  1.1784742653545961e-01  1.1789286748091685e-01  1.1806645692291352e-01  1.1833466583710685e-01  1.1866263163770560e-01  1.1902350326084728e-01  1.1940001171294473e-01  1.1978254104339228e-01  1.2016643835692768e-01  1.2055002810639273e-01  1.2093324672169277e-01  1.2131674839021218e-01  1.2170124162445374e-01  1.2208682346233918e-01  1.2247205531124879e-01  1.2285246240489542e-01  1.2321812607592898e-01  1.2355045115524214e-01  1.2381997355528761e-01  1.2399074639471082e-01  1.2403553670019880e-01  1.1831561067765352e-01  1.1834983836833125e-01  1.1847861307956617e-01  1.1868341011239132e-01  1.1894415584354910e-01  1.1924220734267346e-01  1.1956340999268063e-01  1.1989811936481512e-01  1.2024027179124724e-01  1.2058625223172209e-01  1.2093392799853266e-01  1.2128186551423317e-01  1.2162865345276871e-01  1.2197221231375341e-01  1.2230895795389345e-01  1.2263271385716283e-01  1.2293340816006197e-01  1.2319601042126256e-01  1.2340097533105053e-01  1.2352803584085129e-01  1.2356230925640187e-01  1.1868756967696585e-01  1.1871424435232927e-01  1.1881442871786518e-01  1.1897683681712044e-01  1.1918909852091521e-01  1.1943844217374212e-01  1.1971382101817096e-01  1.2000662091450946e-01  1.2031050436645248e-01  1.2062089019675919e-01  1.2093435032750675e-01  1.2124802192901865e-01  1.2155904242574711e-01  1.2186397210791945e-01  1.2215816793882256e-01  1.2243511869649434e-01  1.2268587515065149e-01  1.2289893157944823e-01  1.2306114635742493e-01  1.2316014095272297e-01  1.2318681322644087e-01  1.1898517381421378e-01  1.1900669557476341e-01  1.1908759876997413e-01  1.1922050708510855e-01  1.1939730985173967e-01  1.1960903819451932e-01  1.1984716148752202e-01  1.2010430700798616e-01  1.2037441047236119e-01  1.2065253885322794e-01  1.2093455591487903e-01  1.2121672867592931e-01  1.2149531412192109e-01  1.2176613878362434e-01  1.2202418585629722e-01  1.2226323948823971e-01  1.2247570531361188e-01  1.2265281017584488e-01  1.2278540573781925e-01  1.2286541547212267e-01  1.2288688625083141e-01  1.1922310030045635e-01  1.1924101515109613e-01  1.1930842201314305e-01  1.1942019744100849e-01  1.1957072004436664e-01  1.1975344395777306e-01  1.1996169166289691e-01  1.2018921203257743e-01  1.2043041405155031e-01  1.2068035796358402e-01  1.2093459760852608e-01  1.2118894428926545e-01  1.2143919686400960e-01  1.2168086889833035e-01  1.2190894592106313e-01  1.2211772452778392e-01  1.2230081399429175e-01  1.2245140000445855e-01  1.2256284191137788e-01  1.2262955747595830e-01  1.2264740762590309e-01  1.1941152201721694e-01  1.1942686134997231e-01  1.1948461060914672e-01  1.1958100624801628e-01  1.1971193630903201e-01  1.1987241131132192e-01  1.2005706117867497e-01  1.2026053994025503e-01  1.2047775212771704e-01  1.2070391823875698e-01  1.2093452421851100e-01  1.2116519985669796e-01  1.2139156388348855e-01  1.2160906842172176e-01  1.2181287680938188e-01  1.2199781604664758e-01  1.2215845252550869e-01  1.2228933537400012e-01  1.2238542227512840e-01  1.2244263631716222e-01  1.2245791376006229e-01  1.1955764860807078e-01  1.1957113902336862e-01  1.1962194070330594e-01  1.1970713962783405e-01  1.1982355996235712e-01  1.1996721861519175e-01  1.2013364758769039e-01  1.2031818655727887e-01  1.2051617756274567e-01  1.2072305854201007e-01  1.2093437458594726e-01  1.2114573380352509e-01  1.2135273584864195e-01  1.2155090073829904e-01  1.2173562619282685e-01  1.2190220292011143e-01  1.2204591560713471e-01  1.2216224747955762e-01  1.2224718504134256e-01  1.2229758110315228e-01  1.2231101903691537e-01  1.1966662344688024e-01  1.1967880891102414e-01  1.1972469741008668e-01  1.1980191620635025e-01  1.1990787288508752e-01  1.2003923057432553e-01  1.2019212810466201e-01  1.2036239786000827e-01  1.2054572957755998e-01  1.2073777170259771e-01  1.2093417694976608e-01  1.2113060758258619e-01  1.2132272003197231e-01  1.2150615001601955e-01  1.2167651952893535e-01  1.2182948570964264e-01  1.2196084708709154e-01  1.2206671319716045e-01  1.2214372963664852e-01  1.2218932558104649e-01  1.2220147061396938e-01  1.1974205589081625e-01  1.1975337006731492e-01  1.1979597033344878e-01  1.1986782722432790e-01  1.1996670175080834e-01  1.2008965590125630e-01  1.2023321538325138e-01  1.2039354133765812e-01  1.2056657146267358e-01  1.2074812182367689e-01  1.2093395068103463e-01  1.2111979329484354e-01  1.2130138134736555e-01  1.2147446277403415e-01  1.2163483784067576e-01  1.2177842514758080e-01  1.2190136634861667e-01  1.2200017054404376e-01  1.2207189011100396e-01  1.2211430043954412e-01  1.2212558731832145e-01  1.1978634010884864e-01  1.1979715154546804e-01  1.1983784581401349e-01  1.1990659913937669e-01  1.2000136358398714e-01  1.2011941758561739e-01  1.2025750081643694e-01  1.2041196132982288e-01  1.2057888351876808e-01  1.2075418887100166e-01  1.2093370870028422e-01  1.2111323449538287e-01  1.2128855605875008e-01  1.2145549986145704e-01  1.2160998004273413e-01  1.2174807219816712e-01  1.2186611548501997e-01  1.2196084205685039e-01  1.2202952609818686e-01  1.2207012684588305e-01  1.2208092455662489e-01  1.1980084171504381e-01  1.1981148456920727e-01  1.1985152609924267e-01  1.1991924186380262e-01  1.2001264655249827e-01  1.2012908601486880e-01  1.2026536623952797e-01  1.2041789336038547e-01  1.2058279775346745e-01  1.2075603465241551e-01  1.2093345984292818e-01  1.2111088503344078e-01  1.2128412193238881e-01  1.2144902632547079e-01  1.2160155344632824e-01  1.2173783367098744e-01  1.2185427313335795e-01  1.2194767782205362e-01  1.2201539358661352e-01  1.2205543511664886e-01  1.2206607797081237e-01  1.1978599512923127e-01  1.1979679283997313e-01  1.1983739358766934e-01  1.1990607762900582e-01  1.2000080420083625e-01  1.2011884748768906e-01  1.2025693964312213e-01  1.2041141982439924e-01  1.2057836362710619e-01  1.2075368519047341e-01  1.2093321098557211e-01  1.2111273081485464e-01  1.2128803616708819e-01  1.2145495835603334e-01  1.2160941886941927e-01  1.2174750210023885e-01  1.2186555610186911e-01  1.2196032054647954e-01  1.2202907387184272e-01  1.2206976814038814e-01  1.2208057957700756e-01  1.1974133236753465e-01  1.1975261924631209e-01  1.1979502957485226e-01  1.1986674914181249e-01  1.1996555333723959e-01  1.2008849453827546e-01  1.2023208184518058e-01  1.2039245691182215e-01  1.2056553833849076e-01  1.2074712639101282e-01  1.2093296900482173e-01  1.2111879786217947e-01  1.2130034822318272e-01  1.2147337834819820e-01  1.2163370430260489e-01  1.2177726378459999e-01  1.2190021793504796e-01  1.2199909246152837e-01  1.2207094935240749e-01  1.2211354961854139e-01  1.2212486379504002e-01  1.1966544907188689e-01  1.1967759410480980e-01  1.1972319004920780e-01  1.1980020648869583e-01  1.1990607259876482e-01  1.2003743397621375e-01  1.2019040015692106e-01  1.2036076966983683e-01  1.2054419965388410e-01  1.2073631210327025e-01  1.2093274273609035e-01  1.2112914798325872e-01  1.2132119010829642e-01  1.2150452182584809e-01  1.2167479158119435e-01  1.2182768911153080e-01  1.2195904680076883e-01  1.2206500347950613e-01  1.2214222227576969e-01  1.2218811077483224e-01  1.2220029623897613e-01  1.1955590064894103e-01  1.1956933858270412e-01  1.1961973464451386e-01  1.1970467220629884e-01  1.1982100407872173e-01  1.1996471676574505e-01  1.2013129349302969e-01  1.2031601894755750e-01  1.2051418383721457e-01  1.2072118588233147e-01  1.2093254509990928e-01  1.2114386114384647e-01  1.2135074212311084e-01  1.2154873312857760e-01  1.2173327209816606e-01  1.2189970107066472e-01  1.2204335972349942e-01  1.2215978005802247e-01  1.2224497898255055e-01  1.2229578066248786e-01  1.2230927107778571e-01  1.1940900592579431e-01  1.1942428336869436e-01  1.1948149741072821e-01  1.1957758431185650e-01  1.1970846716034794e-01  1.1986910363920904e-01  1.2005404287647480e-01  1.2025785126413491e-01  1.2047535580236812e-01  1.2070171982915870e-01  1.2093239546734567e-01  1.2116300144709971e-01  1.2138916755813962e-01  1.2160637974560162e-01  1.2180985850718171e-01  1.2199450837453478e-01  1.2215498337682471e-01  1.2228591343784041e-01  1.2238230907670994e-01  1.2244005833588432e-01  1.2245539766863972e-01  1.1921951205995369e-01  1.1923736220989850e-01  1.1930407777447892e-01  1.1941551968139830e-01  1.1956610569156507e-01  1.1974919515807289e-01  1.1995797376479370e-01  1.2018605078752645e-01  1.2042772282184724e-01  1.2067797539659141e-01  1.2093232207733078e-01  1.2118656172227285e-01  1.2143650563430658e-01  1.2167770765327948e-01  1.2190522802296000e-01  1.2211347572808381e-01  1.2229619964149024e-01  1.2244672224484836e-01  1.2255849767271375e-01  1.2262590453476066e-01  1.2264381938540049e-01  1.1898003343502563e-01  1.1900150421373437e-01  1.1908151394803776e-01  1.1921410951001213e-01  1.1939121437224516e-01  1.1960368019761733e-01  1.1984273382955977e-01  1.2010078090223268e-01  1.2037160556393597e-01  1.2065019100992777e-01  1.2093236377097802e-01  1.2121438083262917e-01  1.2149250921349597e-01  1.2176261267787095e-01  1.2201975819833508e-01  1.2225788149133776e-01  1.2246960983411739e-01  1.2264641260074849e-01  1.2277932091588284e-01  1.2286022411109351e-01  1.2288174587164319e-01  1.1868010645941643e-01  1.1870677873313434e-01  1.1880577332843233e-01  1.1896798810640902e-01  1.1918104453520577e-01  1.1943180098936290e-01  1.1970875174703467e-01  1.2000294757793781e-01  1.2030787726011020e-01  1.2061889775683865e-01  1.2093256935835055e-01  1.2124602948909814e-01  1.2155641531940491e-01  1.2186029877134791e-01  1.2215309866768637e-01  1.2242847751211516e-01  1.2267782116494205e-01  1.2289008286873680e-01  1.2305249096799201e-01  1.2315267533352790e-01  1.2317935000889131e-01  1.1830461042945573e-01  1.1833888384500628e-01  1.1846594435480702e-01  1.1867090926459495e-01  1.1893351152579555e-01  1.1923420582869471e-01  1.1955796173196409e-01  1.1989470737210414e-01  1.2023826623308889e-01  1.2058505417162442e-01  1.2093299168732492e-01  1.2128066745413550e-01  1.2162664789461035e-01  1.2196880032104244e-01  1.2230350969317692e-01  1.2262471234318406e-01  1.2292276384230841e-01  1.2318350957346615e-01  1.2338830660629127e-01  1.2351708131752615e-01  1.2355130900820387e-01  1.1783138298565915e-01  1.1787617329114708e-01  1.1804694613057026e-01  1.1831646853061573e-01  1.1864879360992885e-01  1.1901445728096241e-01  1.1939486437460904e-01  1.1978009622351871e-01  1.2016567806140416e-01  1.2055017129564569e-01  1.2093367296416511e-01  1.2131689157946515e-01  1.2170048132893023e-01  1.2208437864246557e-01  1.2246690797291307e-01  1.2284341642501050e-01  1.2320428804815212e-01  1.2353225384875086e-01  1.2380046276294412e-01  1.2397405220494077e-01  1.2401949315039799e-01  1.1722891307026741e-01  1.1728248790859894e-01  1.1752778003991284e-01  1.1790087658263582e-01  1.1833282455055266e-01  1.1878149303610715e-01  1.1922786161604526e-01  1.1966563366461401e-01  1.2009442306970458e-01  1.2051637138591606e-01  1.2093462054047802e-01  1.2135262296787498e-01  1.2177375237905695e-01  1.2220088321208641e-01  1.2263562054585475e-01  1.2307676949508176e-01  1.2351736172723801e-01  1.2393915570274097e-01  1.2430607905242071e-01  1.2455623264636838e-01  1.2461773907464094e-01  1.1645440642977230e-01  1.1648591767487253e-01  1.1688250365305301e-01  1.1743223572393137e-01  1.1800421613521037e-01  1.1855291773256962e-01  1.1907038927828199e-01  1.1956053550583362e-01  1.2003014678432272e-01  1.2048630032969004e-01  1.2093578374452384e-01  1.2138512758635742e-01  1.2184079255194669e-01  1.2230930913089816e-01  1.2279710851678452e-01  1.2330939461447854e-01  1.2384683595015906e-01  1.2439864853062482e-01  1.2492064136965397e-01  1.2531802059413025e-01  1.2540222810353682e-01  1.1537850089433838e-01  1.1532427878786213e-01  1.1610767190299820e-01  1.1695645367655261e-01  1.1770455660191588e-01  1.1835722186240114e-01  1.1894057230239954e-01  1.1947593558704041e-01  1.1997922637204857e-01  1.2046281947502388e-01  1.2093704491508907e-01  1.2141129209006804e-01  1.2189492446749842e-01  1.2239816737134945e-01  1.2293309144662445e-01  1.2351461739838522e-01  1.2415997660637540e-01  1.2487899883065651e-01  1.2564296223325097e-01  1.2633519143662289e-01  1.2650411876046691e-01  1.1286058409568411e-01  1.1358441928636823e-01  1.1537054211073862e-01  1.1660251914814242e-01  1.1750157866281481e-01  1.1822945884281634e-01  1.1885755647107821e-01  1.1942263163073462e-01  1.1994753244447598e-01  1.2044844853166567e-01  1.2093818837301364e-01  1.2142811587960603e-01  1.2192962800939139e-01  1.2245564565671005e-01  1.2302259117029299e-01  1.2365368673198852e-01  1.2438548357527128e-01  1.2527953039674128e-01  1.2641039662246184e-01  1.2759300569381840e-01  1.2858420546925664e-01  1.0105936040766034e-01  1.1256270681584987e-01  1.1537168653593907e-01  1.1656622435920824e-01  1.1745646790014744e-01  1.1819579881963992e-01  1.1883495467175981e-01  1.1940807536774430e-01  1.1993887696050183e-01  1.2044449093977939e-01  1.2093841131360313e-01  1.2143254992960553e-01  1.2193885996857787e-01  1.2247097888427665e-01  1.2304636751789794e-01  1.2368957374052544e-01  1.2443763094042889e-01  1.2535359829464113e-01  1.2662108485818774e-01  1.2928774066455248e-01  1.3608897323647345e-01  </DataArray> 
</PointData> 
</Piece>
</UnstructuredGrid>
</VTKFile>