<?xml version="1.0"?>
<VTKFile type="UnstructuredGrid"  version="0.1"  >
<UnstructuredGrid>
<Piece  NumberOfPoints="651" NumberOfCells="1200">
<Points>
<DataArray  type="Float64"  NumberOfComponents="3"  format="ascii">0 0 0  50000 0 0  100000 0 0  150000 0 0  200000 0 0  250000 0 0  300000 0 0  350000 0 0  400000 0 0  450000 0 0  500000 0 0  550000 0 0  600000 0 0  650000 0 0  700000 0 0  750000 0 0  800000 0 0  850000 0 0  900000 0 0  950000 0 0  1000000 0 0  0 50000 0  50000 50000 0  100000 50000 0  150000 50000 0  200000 50000 0  250000 50000 0  300000 50000 0  350000 50000 0  400000 50000 0  450000 50000 0  500000 50000 0  550000 50000 0  600000 50000 0  650000 50000 0  700000 50000 0  750000 50000 0  800000 50000 0  850000 50000 0  900000 50000 0  950000 50000 0  1000000 50000 0  0 100000 0  50000 100000 0  100000 100000 0  150000 100000 0  200000 100000 0  250000 100000 0  300000 100000 0  350000 100000 0  400000 100000 0  450000 100000 0  500000 100000 0  550000 100000 0  600000 100000 0  650000 100000 0  700000 100000 0  750000 100000 0  800000 100000 0  850000 100000 0  900000 100000 0  950000 100000 0  1000000 100000 0  0 150000 0  50000 150000 0  100000 150000 0  150000 150000 0  200000 150000 0  250000 150000 0  300000 150000 0  350000 150000 0  400000 150000 0  450000 150000 0  500000 150000 0  550000 150000 0  600000 150000 0  650000 150000 0  700000 150000 0  750000 150000 0  800000 150000 0  850000 150000 0  900000 150000 0  950000 150000 0  1000000 150000 0  0 200000 0  50000 200000 0  100000 200000 0  150000 200000 0  200000 200000 0  250000 200000 0  300000 200000 0  350000 200000 0  400000 200000 0  450000 200000 0  500000 200000 0  550000 200000 0  600000 200000 0  650000 200000 0  700000 200000 0  750000 200000 0  800000 200000 0  850000 200000 0  900000 200000 0  950000 200000 0  1000000 200000 0  0 250000 0  50000 250000 0  100000 250000 0  150000 250000 0  200000 250000 0  250000 250000 0  300000 250000 0  350000 250000 0  400000 250000 0  450000 250000 0  500000 250000 0  550000 250000 0  600000 250000 0  650000 250000 0  700000 250000 0  750000 250000 0  800000 250000 0  850000 250000 0  900000 250000 0  950000 250000 0  1000000 250000 0  0 300000 0  50000 300000 0  100000 300000 0  150000 300000 0  200000 300000 0  250000 300000 0  300000 300000 0  350000 300000 0  400000 300000 0  450000 300000 0  500000 300000 0  550000 300000 0  600000 300000 0  650000 300000 0  700000 300000 0  750000 300000 0  800000 300000 0  850000 300000 0  900000 300000 0  950000 300000 0  1000000 300000 0  0 350000 0  50000 350000 0  100000 350000 0  150000 350000 0  200000 350000 0  250000 350000 0  300000 350000 0  350000 350000 0  400000 350000 0  450000 350000 0  500000 350000 0  550000 350000 0  600000 350000 0  650000 350000 0  700000 350000 0  750000 350000 0  800000 350000 0  850000 350000 0  900000 350000 0  950000 350000 0  1000000 350000 0  0 400000 0  50000 400000 0  100000 400000 0  150000 400000 0  200000 400000 0  250000 400000 0  300000 400000 0  350000 400000 0  400000 400000 0  450000 400000 0  500000 400000 0  550000 400000 0  600000 400000 0  650000 400000 0  700000 400000 0  750000 400000 0  800000 400000 0  850000 400000 0  900000 400000 0  950000 400000 0  1000000 400000 0  0 450000 0  50000 450000 0  100000 450000 0  150000 450000 0  200000 450000 0  250000 450000 0  300000 450000 0  350000 450000 0  400000 450000 0  450000 450000 0  500000 450000 0  550000 450000 0  600000 450000 0  650000 450000 0  700000 450000 0  750000 450000 0  800000 450000 0  850000 450000 0  900000 450000 0  950000 450000 0  1000000 450000 0  0 500000 0  50000 500000 0  100000 500000 0  150000 500000 0  200000 500000 0  250000 500000 0  300000 500000 0  350000 500000 0  400000 500000 0  450000 500000 0  500000 500000 0  550000 500000 0  600000 500000 0  650000 500000 0  700000 500000 0  750000 500000 0  800000 500000 0  850000 500000 0  900000 500000 0  950000 500000 0  1000000 500000 0  0 550000 0  50000 550000 0  100000 550000 0  150000 550000 0  200000 550000 0  250000 550000 0  300000 550000 0  350000 550000 0  400000 550000 0  450000 550000 0  500000 550000 0  550000 550000 0  600000 550000 0  650000 550000 0  700000 550000 0  750000 550000 0  800000 550000 0  850000 550000 0  900000 550000 0  950000 550000 0  1000000 550000 0  0 600000 0  50000 600000 0  100000 600000 0  150000 600000 0  200000 600000 0  250000 600000 0  300000 600000 0  350000 600000 0  400000 600000 0  450000 600000 0  500000 600000 0  550000 600000 0  600000 600000 0  650000 600000 0  700000 600000 0  750000 600000 0  800000 600000 0  850000 600000 0  900000 600000 0  950000 600000 0  1000000 600000 0  0 650000 0  50000 650000 0  100000 650000 0  150000 650000 0  200000 650000 0  250000 650000 0  300000 650000 0  350000 650000 0  400000 650000 0  450000 650000 0  500000 650000 0  550000 650000 0  600000 650000 0  650000 650000 0  700000 650000 0  750000 650000 0  800000 650000 0  850000 650000 0  900000 650000 0  950000 650000 0  1000000 650000 0  0 700000 0  50000 700000 0  100000 700000 0  150000 700000 0  200000 700000 0  250000 700000 0  300000 700000 0  350000 700000 0  400000 700000 0  450000 700000 0  500000 700000 0  550000 700000 0  600000 700000 0  650000 700000 0  700000 700000 0  750000 700000 0  800000 700000 0  850000 700000 0  900000 700000 0  950000 700000 0  1000000 700000 0  0 750000 0  50000 750000 0  100000 750000 0  150000 750000 0  200000 750000 0  250000 750000 0  300000 750000 0  350000 750000 0  400000 750000 0  450000 750000 0  500000 750000 0  550000 750000 0  600000 750000 0  650000 750000 0  700000 750000 0  750000 750000 0  800000 750000 0  850000 750000 0  900000 750000 0  950000 750000 0  1000000 750000 0  0 800000 0  50000 800000 0  100000 800000 0  150000 800000 0  200000 800000 0  250000 800000 0  300000 800000 0  350000 800000 0  400000 800000 0  450000 800000 0  500000 800000 0  550000 800000 0  600000 800000 0  650000 800000 0  700000 800000 0  750000 800000 0  800000 800000 0  850000 800000 0  900000 800000 0  950000 800000 0  1000000 800000 0  0 850000 0  50000 850000 0  100000 850000 0  150000 850000 0  200000 850000 0  250000 850000 0  300000 850000 0  350000 850000 0  400000 850000 0  450000 850000 0  500000 850000 0  550000 850000 0  600000 850000 0  650000 850000 0  700000 850000 0  750000 850000 0  800000 850000 0  850000 850000 0  900000 850000 0  950000 850000 0  1000000 850000 0  0 900000 0  50000 900000 0  100000 900000 0  150000 900000 0  200000 900000 0  250000 900000 0  300000 900000 0  350000 900000 0  400000 900000 0  450000 900000 0  500000 900000 0  550000 900000 0  600000 900000 0  650000 900000 0  700000 900000 0  750000 900000 0  800000 900000 0  850000 900000 0  900000 900000 0  950000 900000 0  1000000 900000 0  0 950000 0  50000 950000 0  100000 950000 0  150000 950000 0  200000 950000 0  250000 950000 0  300000 950000 0  350000 950000 0  400000 950000 0  450000 950000 0  500000 950000 0  550000 950000 0  600000 950000 0  650000 950000 0  700000 950000 0  750000 950000 0  800000 950000 0  850000 950000 0  900000 950000 0  950000 950000 0  1000000 950000 0  0 1000000 0  50000 1000000 0  100000 1000000 0  150000 1000000 0  200000 1000000 0  250000 1000000 0  300000 1000000 0  350000 1000000 0  400000 1000000 0  450000 1000000 0  500000 1000000 0  550000 1000000 0  600000 1000000 0  650000 1000000 0  700000 1000000 0  750000 1000000 0  800000 1000000 0  850000 1000000 0  900000 1000000 0  950000 1000000 0  1000000 1000000 0  0 1050000 0  50000 1050000 0  100000 1050000 0  150000 1050000 0  200000 1050000 0  250000 1050000 0  300000 1050000 0  350000 1050000 0  400000 1050000 0  450000 1050000 0  500000 1050000 0  550000 1050000 0  600000 1050000 0  650000 1050000 0  700000 1050000 0  750000 1050000 0  800000 1050000 0  850000 1050000 0  900000 1050000 0  950000 1050000 0  1000000 1050000 0  0 1100000 0  50000 1100000 0  100000 1100000 0  150000 1100000 0  200000 1100000 0  250000 1100000 0  300000 1100000 0  350000 1100000 0  400000 1100000 0  450000 1100000 0  500000 1100000 0  550000 1100000 0  600000 1100000 0  650000 1100000 0  700000 1100000 0  750000 1100000 0  800000 1100000 0  850000 1100000 0  900000 1100000 0  950000 1100000 0  1000000 1100000 0  0 1150000 0  50000 1150000 0  100000 1150000 0  150000 1150000 0  200000 1150000 0  250000 1150000 0  300000 1150000 0  350000 1150000 0  400000 1150000 0  450000 1150000 0  500000 1150000 0  550000 1150000 0  600000 1150000 0  650000 1150000 0  700000 1150000 0  750000 1150000 0  800000 1150000 0  850000 1150000 0  900000 1150000 0  950000 1150000 0  1000000 1150000 0  0 1200000 0  50000 1200000 0  100000 1200000 0  150000 1200000 0  200000 1200000 0  250000 1200000 0  300000 1200000 0  350000 1200000 0  400000 1200000 0  450000 1200000 0  500000 1200000 0  550000 1200000 0  600000 1200000 0  650000 1200000 0  700000 1200000 0  750000 1200000 0  800000 1200000 0  850000 1200000 0  900000 1200000 0  950000 1200000 0  1000000 1200000 0  0 1250000 0  50000 1250000 0  100000 1250000 0  150000 1250000 0  200000 1250000 0  250000 1250000 0  300000 1250000 0  350000 1250000 0  400000 1250000 0  450000 1250000 0  500000 1250000 0  550000 1250000 0  600000 1250000 0  650000 1250000 0  700000 1250000 0  750000 1250000 0  800000 1250000 0  850000 1250000 0  900000 1250000 0  950000 1250000 0  1000000 1250000 0  0 1300000 0  50000 1300000 0  100000 1300000 0  150000 1300000 0  200000 1300000 0  250000 1300000 0  300000 1300000 0  350000 1300000 0  400000 1300000 0  450000 1300000 0  500000 1300000 0  550000 1300000 0  600000 1300000 0  650000 1300000 0  700000 1300000 0  750000 1300000 0  800000 1300000 0  850000 1300000 0  900000 1300000 0  950000 1300000 0  1000000 1300000 0  0 1350000 0  50000 1350000 0  100000 1350000 0  150000 1350000 0  200000 1350000 0  250000 1350000 0  300000 1350000 0  350000 1350000 0  400000 1350000 0  450000 1350000 0  500000 1350000 0  550000 1350000 0  600000 1350000 0  650000 1350000 0  700000 135
[...]
<PointData  Scalars="f_6001"> 
<DataArray  type="Float64"  Name="f_6001"  format="ascii">1.0537419199710735e-01  1.1246930908100702e-01  1.1507844924143121e-01  1.1629634458990827e-01  1.1719856056524150e-01  1.1794142558028355e-01  1.1857948379943527e-01  1.1914953047351275e-01  1.1967648895038586e-01  1.2017784562743368e-01  1.2066713927853809e-01  1.2115620721317996e-01  1.2165684193236724e-01  1.2218244244644433e-01  1.2275027805130823e-01  1.2338480986667219e-01  1.2411819370048444e-01  1.2497165498920418e-01  1.2601347839767693e-01  1.2883443562932112e-01  1.4305195883729302e-01  1.1315897047942722e-01  1.1410241494918477e-01  1.1524326146128577e-01  1.1636527406240288e-01  1.1725332209351619e-01  1.1797837426291846e-01  1.1860327216242661e-01  1.1916468151945039e-01  1.1968557552789519e-01  1.2018219320937217e-01  1.2066732977374987e-01  1.2115227504417454e-01  1.2164828812238812e-01  1.2216806108572188e-01  1.2272756328724688e-01  1.2334880543460175e-01  1.2406590516492468e-01  1.2494967009053401e-01  1.2619704850900954e-01  1.2811706567433570e-01  1.2853874665896819e-01  1.1518871976211310e-01  1.1531666237267549e-01  1.1600441477238371e-01  1.1676429039389727e-01  1.1747704270487096e-01  1.1811616261340457e-01  1.1869195820192670e-01  1.1922161843514122e-01  1.1971993178413887e-01  1.2019883602105683e-01  1.2066844700071309e-01  1.2113803353488831e-01  1.2161688853806336e-01  1.2211521726589100e-01  1.2264518724517318e-01  1.2322242517374296e-01  1.2386867838110098e-01  1.2461436877049711e-01  1.2547211753764656e-01  1.2624237323668935e-01  1.2600978719519865e-01  1.1624658574786705e-01  1.1632693086753222e-01  1.1672289867680405e-01  1.1724075325573087e-01  1.1778728934350542e-01  1.1831937494375099e-01  1.1882659975826368e-01  1.1930961793299376e-01  1.1977355266479767e-01  1.2022476415669889e-01  1.2066971707176208e-01  1.2111480706754983e-01  1.2156649764583530e-01  1.2203150636138566e-01  1.2251686253194476e-01  1.2302946928197733e-01  1.2357383557664044e-01  1.2414280048961074e-01  1.2468757411895635e-01  1.2506534771880348e-01  1.2508412845476491e-01  1.1702024945712561e-01  1.1708403009202198e-01  1.1733211770018692e-01  1.1769578313562670e-01  1.1811345121826292e-01  1.1854968968033675e-01  1.1898650679858025e-01  1.1941699005813590e-01  1.1983994712304707e-01  1.2025696375901630e-01  1.2067088538685466e-01  1.2108505352972809e-01  1.2150289070194098e-01  1.2192752264859888e-01  1.2236111703726976e-01  1.2280339888235996e-01  1.2324820743864892e-01  1.2367618294303442e-01  1.2404380182611217e-01  1.2428308936335213e-01  1.2434383934675283e-01  1.1761477228771856e-01  1.1766092917418083e-01  1.1783294180979734e-01  1.1809860089630414e-01  1.1842338611545322e-01  1.1878073580544884e-01  1.1915356417913948e-01  1.1953235702915621e-01  1.1991250655886344e-01  1.2029235306941451e-01  1.2067183449790062e-01  1.2105160117670076e-01  1.2143236074366148e-01  1.2181422237465024e-01  1.2219578271842367e-01  1.2257261761765147e-01  1.2293480914944438e-01  1.2326363658031654e-01  1.2352974384213677e-01  1.2369873094514566e-01  1.2374562002670556e-01  1.1807939620469431e-01  1.1811347845545092e-01  1.1824109693363452e-01  1.1844390756508551e-01  1.1870213424716035e-01  1.1899728868887997e-01  1.1931536091781178e-01  1.1964680564248083e-01  1.1998562051137089e-01  1.2032822710824710e-01  1.2067251509056182e-01  1.2101706739035642e-01  1.2136049051109762e-01  1.2170073012822943e-01  1.2203423690744848e-01  1.2235487225065464e-01  1.2265259745189461e-01  1.2291246023237010e-01  1.2311522053989810e-01  1.2324118112232227e-01  1.2327535995502763e-01  1.1844799589319067e-01  1.1847438784066454e-01  1.1857364426846320e-01  1.1873447882809304e-01  1.1894468341599471e-01  1.1919160420816384e-01  1.1946430148525783e-01  1.1975424729087400e-01  1.2005516789729842e-01  1.2036252814835904e-01  1.2067293473905573e-01  1.2098355430061865e-01  1.2129155353942955e-01  1.2159352578215121e-01  1.2188486688411906e-01  1.2215911213365667e-01  1.2240737696341672e-01  1.2261827133454244e-01  1.2277884763855446e-01  1.2287689885716520e-01  1.2290321414734939e-01  1.1874276657060150e-01  1.1876403908563829e-01  1.1884416804978179e-01  1.1897578597177544e-01  1.1915086948607953e-01  1.1936053769881311e-01  1.1959634130566946e-01  1.1985098018950784e-01  1.2011845020222932e-01  1.2039386730500252e-01  1.2067313636778393e-01  1.2095256133189286e-01  1.2122843542288544e-01  1.2149662372570992e-01  1.2175215304692959e-01  1.2198886025122743e-01  1.2219922063551086e-01  1.2237455613676418e-01  1.2250582779230092e-01  1.2258503452434852e-01  1.2260622146027360e-01  1.1897839984608309e-01  1.1899610754704218e-01  1.1906285764146256e-01  1.1917354175244396e-01  1.1932259638843019e-01  1.1950353898535418e-01  1.1970975608816375e-01  1.1993505742518329e-01  1.2017390685278792e-01  1.2042141317573575e-01  1.2067317383568524e-01  1.2092504087656576e-01  1.2117285331273969e-01  1.2141216653390738e-01  1.2163801193858487e-01  1.2184473891030595e-01  1.2202601926901208e-01  1.2217511000329589e-01  1.2228543960375571e-01  1.2235147785403011e-01  1.2236910844604409e-01  1.1916499978667590e-01  1.1918016247345389e-01  1.1923734403751503e-01  1.1933279354627584e-01  1.1946244304231354e-01  1.1962135057278458e-01  1.1980419769637762e-01  1.2000569022347052e-01  1.2022078235581761e-01  1.2044474123478328e-01  1.2067309674082782e-01  1.2090152091509555e-01  1.2112567440677095e-01  1.2134105239644573e-01  1.2154286391000205e-01  1.2172598553684956e-01  1.2188503730344528e-01  1.2201462326632995e-01  1.2210975107150845e-01  1.2216638491538644e-01  1.2218148089599201e-01  1.1930971169242625e-01  1.1932304677963645e-01  1.1937334645484168e-01  1.1945770587782137e-01  1.1957298453241386e-01  1.1971523736134088e-01  1.1988003929909488e-01  1.2006277509427575e-01  1.2025883201063939e-01  1.2046369231542410e-01  1.2067294430131639e-01  1.2088223848996207e-01  1.2108721681226581e-01  1.2128344218605119e-01  1.2146635651073408e-01  1.2163129615841256e-01  1.2177359214659317e-01  1.2188877230342879e-01  1.2197286257311628e-01  1.2202274925351748e-01  1.2203602974415789e-01  1.1941763093923827e-01  1.1942967590770374e-01  1.1947510923544255e-01  1.1955156499882608e-01  1.1965648026094909e-01  1.1978655031264496e-01  1.1993795113397102e-01  1.2010655540971674e-01  1.2028809465477476e-01  1.2047825951053349e-01  1.2067274479435403e-01  1.2086725468721683e-01  1.2105748750635069e-01  1.2123912104022089e-01  1.2140781960333524e-01  1.2155928255752067e-01  1.2168934951382580e-01  1.2179416811088520e-01  1.2187041697277891e-01  1.2191555346474245e-01  1.2192755702559968e-01  1.1949233296539230e-01  1.1950351648197632e-01  1.1954569287339634e-01  1.1961683817635152e-01  1.1971473909923723e-01  1.1983648619840866e-01  1.1997863871392123e-01  1.2013739494042627e-01  1.2030873194096268e-01  1.2048850632680966e-01  1.2067251743330536e-01  1.2085654177424512e-01  1.2103635229291196e-01  1.2120773804924329e-01  1.2136654001101906e-01  1.2150871645649666e-01  1.2163044664990304e-01  1.2172827376950804e-01  1.2179927926311102e-01  1.2184126336536079e-01  1.2185241914427887e-01  1.1953618945623448e-01  1.1954687585700603e-01  1.1958716410646625e-01  1.1965523540485128e-01  1.1974906533320778e-01  1.1986595896596963e-01  1.2000268755544091e-01  1.2015563455385413e-01  1.2032092231889503e-01  1.2049451186895001e-01  1.2067227489655952e-01  1.2085004363112468e-01  1.2102364862638645e-01  1.2118895677374558e-01  1.2134192183618628e-01  1.2147865753075431e-01  1.2159553862612396e-01  1.2168932910804343e-01  1.2175733002905575e-01  1.2179752371580196e-01  1.2180819622286450e-01  1.1955055333366836e-01  1.1956107294217350e-01  1.1960071396851350e-01  1.1966775704943261e-01  1.1976023955161635e-01  1.1987553341789220e-01  1.2001047567246877e-01  1.2016150734655917e-01  1.2032479636924023e-01  1.2049633719300870e-01  1.2067202575286169e-01  1.2084771431271465e-01  1.2101925513648315e-01  1.2118254415916416e-01  1.2133357583325453e-01  1.2146851808783110e-01  1.2158381195410695e-01  1.2167629445629066e-01  1.2174333753720977e-01  1.2178297856354976e-01  1.2179349817205491e-01  1.1953585528285877e-01  1.1954652778992131e-01  1.1958672147666755e-01  1.1965472239767984e-01  1.1974851287959935e-01  1.1986539397496901e-01  1.2000212966953708e-01  1.2015509473197779e-01  1.2032040287933692e-01  1.2049400787459870e-01  1.2067177660916389e-01  1.2084953963677343e-01  1.2102312918682837e-01  1.2118841695186919e-01  1.2134136395028239e-01  1.2147809253975365e-01  1.2159498617251553e-01  1.2168881610087205e-01  1.2175688739925707e-01  1.2179717564871725e-01  1.2180786204948882e-01  1.1949163236144436e-01  1.1950278814036253e-01  1.1954477224261231e-01  1.1961577773621530e-01  1.1971360485582032e-01  1.1983533504922672e-01  1.1997751149470433e-01  1.2013631345648010e-01  1.2030769921281148e-01  1.2048750973147832e-01  1.2067153407241810e-01  1.2085554517891381e-01  1.2103531956476071e-01  1.2120665656529708e-01  1.2136541279180212e-01  1.2150756530731470e-01  1.2162931240648617e-01  1.2172721332937185e-01  1.2179835863232705e-01  1.2184053502374706e-01  1.2185171854033107e-01  1.1941649448012373e-01  1.1942849804098096e-01  1.1947363453294454e-01  1.1954988339483824e-01  1.1965470199189765e-01  1.1978476894820279e-01  1.1993623190238824e-01  1.2010493046550257e-01  1.2028656399937281e-01  1.2047679681850669e-01  1.2067130671136950e-01  1.2086579199519004e-01  1.2105595685094872e-01  1.2123749609600667e-01  1.2140610037175241e-01  1.2155750119307847e-01  1.2168757124477438e-01  1.2179248650689740e-01  1.2186894227028093e-01  1.2191437559801971e-01  1.2192642056648520e-01  1.1930802176156569e-01  1.1932130225220608e-01  1.1937118893260731e-01  1.1945527920229476e-01  1.1957045935913041e-01  1.1971275534731103e-01  1.1987769499498954e-01  1.2006060931967241e-01  1.2025683469345781e-01  1.2046181301576156e-01  1.2067110720440723e-01  1.2088035919029955e-01  1.2108521949508422e-01  1.2128127641144776e-01  1.2146401220662864e-01  1.2162881414438266e-01  1.2177106697330975e-01  1.2188634562790221e-01  1.2197070505088188e-01  1.2202100472608710e-01  1.2203433981329731e-01  1.1916257060973179e-01  1.1917766659033735e-01  1.1923430043421535e-01  1.1932942823939380e-01  1.1945901420227850e-01  1.1961806596887421e-01  1.1980118759572173e-01  1.2000299910927803e-01  1.2021837709895283e-01  1.2044253059062822e-01  1.2067095476489595e-01  1.2089931027094050e-01  1.2112326914990613e-01  1.2133836128225320e-01  1.2153985380934608e-01  1.2172270093293913e-01  1.2188160846341023e-01  1.2201125795944791e-01  1.2210670746820869e-01  1.2216388903226981e-01  1.2217905171904780e-01  1.1897494305967990e-01  1.1899257365169387e-01  1.1905861190196830e-01  1.1916894150242807e-01  1.1931803223671192e-01  1.1949931259541802e-01  1.1970603956713907e-01  1.1993188497181653e-01  1.2017119819298427e-01  1.2041901062915820e-01  1.2067087767003869e-01  1.2092263832998820e-01  1.2117014465293600e-01  1.2140899408054064e-01  1.2163429541756017e-01  1.2184051252036970e-01  1.2202145511729370e-01  1.2217050975327994e-01  1.2228119386426130e-01  1.2234794395868165e-01  1.2236565165964074e-01  1.1873783004545063e-01  1.1875901698137570e-01  1.1883822371342331e-01  1.1896949536896004e-01  1.1914483087021333e-01  1.1935519125449674e-01  1.1959189845879456e-01  1.1984742778001424e-01  1.2011561608283873e-01  1.2039149017383133e-01  1.2067091513794023e-01  1.2095018420072164e-01  1.2122560130349488e-01  1.2149307131621631e-01  1.2174771020005465e-01  1.2198351380691097e-01  1.2219318201964451e-01  1.2236826553394860e-01  1.2249988345594219e-01  1.2258001242008568e-01  1.2260128493512247e-01  1.1844083735837510e-01  1.1846715264855931e-01  1.1856520386717001e-01  1.1872578017118197e-01  1.1893667454230769e-01  1.1918493937206770e-01  1.1945918462160529e-01  1.1975052572357314e-01  1.2005249796629477e-01  1.2036049720510571e-01  1.2067111676666863e-01  1.2098152335736533e-01  1.2128888360842596e-01  1.2158980421485034e-01  1.2187975002046648e-01  1.2215244729756040e-01  1.2239936808972951e-01  1.2260957267763117e-01  1.2277040723726096e-01  1.2286966366505958e-01  1.2289605561253344e-01  1.1806869155069721e-01  1.1810287038340256e-01  1.1822883096582666e-01  1.1843159127335462e-01  1.1869145405383005e-01  1.1898917925507001e-01  1.1930981459827616e-01  1.1964332137749520e-01  1.1998356099462701e-01  1.2032698411536819e-01  1.2067153641516276e-01  1.2101582439747749e-01  1.2135843099435371e-01  1.2169724586324372e-01  1.2202869058791273e-01  1.2234676281684449e-01  1.2264191725856410e-01  1.2290014394063893e-01  1.2310295457208986e-01  1.2323057305027341e-01  1.2326465530103003e-01  1.1759843147901966e-01  1.1764532056057955e-01  1.1781430766358836e-01  1.1808041492540849e-01  1.1840924235628059e-01  1.1877143388807344e-01  1.1914826878730124e-01  1.1952982913107468e-01  1.1991169076206340e-01  1.2029245032902409e-01  1.2067221700782423e-01  1.2105169843631031e-01  1.2143154494686138e-01  1.2181169447656857e-01  1.2219048732658525e-01  1.2256331570027583e-01  1.2292066539027142e-01  1.2324545060942051e-01  1.2351110969592725e-01  1.2368312233154372e-01  1.2372927921800597e-01  1.1700021215897294e-01  1.1706096214237353e-01  1.1730024967961326e-01  1.1766786856269090e-01  1.1809584406707635e-01  1.1854065262336522e-01  1.1898293446845543e-01  1.1941652885712631e-01  1.1984116080378415e-01  1.2025899797599703e-01  1.2067316611887044e-01  1.2108708774670879e-01  1.2150410438267800e-01  1.2192706144758909e-01  1.2235754470714470e-01  1.2279436182538818e-01  1.2323060028746197e-01  1.2364826837009814e-01  1.2401193380553789e-01  1.2426002141370281e-01  1.2432380204859916e-01  1.1625992305096181e-01  1.1627870378692269e-01  1.1665647738676940e-01  1.1720125101611485e-01  1.1777021592908510e-01  1.1831458222374815e-01  1.1882718897378067e-01  1.1931254514433980e-01  1.1977755385989010e-01  1.2022924443817556e-01  1.2067433443396329e-01  1.2111928734902649e-01  1.2157049884092767e-01  1.2203443357273148e-01  1.2251745174746152e-01  1.2302467656197413e-01  1.2355676216221965e-01  1.2410329824999415e-01  1.2462115282892094e-01  1.2501712063819279e-01  1.2509746575785796e-01  1.1533426431052976e-01  1.1510167826903736e-01  1.1587193396807918e-01  1.1672968273522862e-01  1.1747537312462480e-01  1.1812162633198282e-01  1.1869886426055259e-01  1.1922883423983476e-01  1.1972716296766231e-01  1.2020601797083734e-01  1.2067560450501257e-01  1.2114521548466881e-01  1.2162411972158678e-01  1.2212243307058433e-01  1.2265209330379878e-01  1.2322788889232082e-01  1.2386700880085434e-01  1.2457976111182791e-01  1.2533963673334142e-01  1.2602738913304978e-01  1.2615533174361218e-01  1.1280530484676023e-01  1.1322698583139186e-01  1.1514700299671549e-01  1.1639438141519182e-01  1.1727814634080146e-01  1.1799524607112438e-01  1.1861648821847921e-01  1.1917599042000419e-01  1.1969576338333791e-01  1.2019177646155144e-01  1.2067672173197606e-01  1.2116185829635376e-01  1.2165847597783071e-01  1.2217936998627546e-01  1.2274077934329918e-01  1.2336567724280725e-01  1.2409072941220937e-01  1.2497877744332256e-01  1.2610079004443958e-01  1.2724163655653883e-01  1.2818508102629919e-01  9.8292092668480491e-02  1.1250961587638178e-01  1.1533057310804613e-01  1.1637239651652254e-01  1.1722585780524211e-01  1.1795924163905414e-01  1.1859377345441804e-01  1.1916160905928187e-01  1.1968720957335896e-01  1.2018784429254617e-01  1.2067691222718803e-01  1.2116620587829237e-01  1.2166756255534020e-01  1.2219452103221323e-01  1.2276456770629068e-01  1.2340262592544229e-01  1.2414549094048419e-01  1.2504770691581704e-01  1.2626560226429259e-01  1.2887474242471328e-01  1.3596985950863119e-01  </DataArray> 
</PointData> 
</Piece>
</UnstructuredGrid>
</VTKFile>