<?xml version="1.0"?>
<VTKFile type="UnstructuredGrid"  version="0.1"  >
<UnstructuredGrid>
<Piece  NumberOfPoints="651" NumberOfCells="1200">
<Points>
<DataArray  type="Float64"  NumberOfComponents="3"  format="ascii">0 0 0  50000 0 0  100000 0 0  150000 0 0  200000 0 0  250000 0 0  300000 0 0  350000 0 0  400000 0 0  450000 0 0  500000 0 0  550000 0 0  600000 0 0  650000 0 0  700000 0 0  750000 0 0  800000 0 0  850000 0 0  900000 0 0  950000 0 0  1000000 0 0  0 50000 0  50000 50000 0  100000 50000 0  150000 50000 0  200000 50000 0  250000 50000 0  300000 50000 0  350000 50000 0  400000 50000 0  450000 50000 0  500000 50000 0  550000 50000 0  600000 50000 0  650000 50000 0  700000 50000 0  750000 50000 0  800000 50000 0  850000 50000 0  900000 50000 0  950000 50000 0  1000000 50000 0  0 100000 0  50000 100000 0  100000 100000 0  150000 100000 0  200000 100000 0  250000 100000 0  300000 100000 0  350000 100000 0  400000 100000 0  450000 100000 0  500000 100000 0  550000 100000 0  600000 100000 0  650000 100000 0  700000 100000 0  750000 100000 0  800000 100000 0  850000 100000 0  900000 100000 0  950000 100000 0  1000000 100000 0  0 150000 0  50000 150000 0  100000 150000 0  150000 150000 0  200000 150000 0  250000 150000 0  300000 150000 0  350000 150000 0  400000 150000 0  450000 150000 0  500000 150000 0  550000 150000 0  600000 150000 0  650000 150000 0  700000 150000 0  750000 150000 0  800000 150000 0  850000 150000 0  900000 150000 0  950000 150000 0  1000000 150000 0  0 200000 0  50000 200000 0  100000 200000 0  150000 200000 0  200000 200000 0  250000 200000 0  300000 200000 0  350000 200000 0  400000 200000 0  450000 200000 0  500000 200000 0  550000 200000 0  600000 200000 0  650000 200000 0  700000 200000 0  750000 200000 0  800000 200000 0  850000 200000 0  900000 200000 0  950000 200000 0  1000000 200000 0  0 250000 0  50000 250000 0  100000 250000 0  150000 250000 0  200000 250000 0  250000 250000 0  300000 250000 0  350000 250000 0  400000 250000 0  450000 250000 0  500000 250000 0  550000 250000 0  600000 250000 0  650000 250000 0  700000 250000 0  750000 250000 0  800000 250000 0  850000 250000 0  900000 250000 0  950000 250000 0  1000000 250000 0  0 300000 0  50000 300000 0  100000 300000 0  150000 300000 0  200000 300000 0  250000 300000 0  300000 300000 0  350000 300000 0  400000 300000 0  450000 300000 0  500000 300000 0  550000 300000 0  600000 300000 0  650000 300000 0  700000 300000 0  750000 300000 0  800000 300000 0  850000 300000 0  900000 300000 0  950000 300000 0  1000000 300000 0  0 350000 0  50000 350000 0  100000 350000 0  150000 350000 0  200000 350000 0  250000 350000 0  300000 350000 0  350000 350000 0  400000 350000 0  450000 350000 0  500000 350000 0  550000 350000 0  600000 350000 0  650000 350000 0  700000 350000 0  750000 350000 0  800000 350000 0  850000 350000 0  900000 350000 0  950000 350000 0  1000000 350000 0  0 400000 0  50000 400000 0  100000 400000 0  150000 400000 0  200000 400000 0  250000 400000 0  300000 400000 0  350000 400000 0  400000 400000 0  450000 400000 0  500000 400000 0  550000 400000 0  600000 400000 0  650000 400000 0  700000 400000 0  750000 400000 0  800000 400000 0  850000 400000 0  900000 400000 0  950000 400000 0  1000000 400000 0  0 450000 0  50000 450000 0  100000 450000 0  150000 450000 0  200000 450000 0  250000 450000 0  300000 450000 0  350000 450000 0  400000 450000 0  450000 450000 0  500000 450000 0  550000 450000 0  600000 450000 0  650000 450000 0  700000 450000 0  750000 450000 0  800000 450000 0  850000 450000 0  900000 450000 0  950000 450000 0  1000000 450000 0  0 500000 0  50000 500000 0  100000 500000 0  150000 500000 0  200000 500000 0  250000 500000 0  300000 500000 0  350000 500000 0  400000 500000 0  450000 500000 0  500000 500000 0  550000 500000 0  600000 500000 0  650000 500000 0  700000 500000 0  750000 500000 0  800000 500000 0  850000 500000 0  900000 500000 0  950000 500000 0  1000000 500000 0  0 550000 0  50000 550000 0  100000 550000 0  150000 550000 0  200000 550000 0  250000 550000 0  300000 550000 0  350000 550000 0  400000 550000 0  450000 550000 0  500000 550000 0  550000 550000 0  600000 550000 0  650000 550000 0  700000 550000 0  750000 550000 0  800000 550000 0  850000 550000 0  900000 550000 0  950000 550000 0  1000000 550000 0  0 600000 0  50000 600000 0  100000 600000 0  150000 600000 0  200000 600000 0  250000 600000 0  300000 600000 0  350000 600000 0  400000 600000 0  450000 600000 0  500000 600000 0  550000 600000 0  600000 600000 0  650000 600000 0  700000 600000 0  750000 600000 0  800000 600000 0  850000 600000 0  900000 600000 0  950000 600000 0  1000000 600000 0  0 650000 0  50000 650000 0  100000 650000 0  150000 650000 0  200000 650000 0  250000 650000 0  300000 650000 0  350000 650000 0  400000 650000 0  450000 650000 0  500000 650000 0  550000 650000 0  600000 650000 0  650000 650000 0  700000 650000 0  750000 650000 0  800000 650000 0  850000 650000 0  900000 650000 0  950000 650000 0  1000000 650000 0  0 700000 0  50000 700000 0  100000 700000 0  150000 700000 0  200000 700000 0  250000 700000 0  300000 700000 0  350000 700000 0  400000 700000 0  450000 700000 0  500000 700000 0  550000 700000 0  600000 700000 0  650000 700000 0  700000 700000 0  750000 700000 0  800000 700000 0  850000 700000 0  900000 700000 0  950000 700000 0  1000000 700000 0  0 750000 0  50000 750000 0  100000 750000 0  150000 750000 0  200000 750000 0  250000 750000 0  300000 750000 0  350000 750000 0  400000 750000 0  450000 750000 0  500000 750000 0  550000 750000 0  600000 750000 0  650000 750000 0  700000 750000 0  750000 750000 0  800000 750000 0  850000 750000 0  900000 750000 0  950000 750000 0  1000000 750000 0  0 800000 0  50000 800000 0  100000 800000 0  150000 800000 0  200000 800000 0  250000 800000 0  300000 800000 0  350000 800000 0  400000 800000 0  450000 800000 0  500000 800000 0  550000 800000 0  600000 800000 0  650000 800000 0  700000 800000 0  750000 800000 0  800000 800000 0  850000 800000 0  900000 800000 0  950000 800000 0  1000000 800000 0  0 850000 0  50000 850000 0  100000 850000 0  150000 850000 0  200000 850000 0  250000 850000 0  300000 850000 0  350000 850000 0  400000 850000 0  450000 850000 0  500000 850000 0  550000 850000 0  600000 850000 0  650000 850000 0  700000 850000 0  750000 850000 0  800000 850000 0  850000 850000 0  900000 850000 0  950000 850000 0  1000000 850000 0  0 900000 0  50000 900000 0  100000 900000 0  150000 900000 0  200000 900000 0  250000 900000 0  300000 900000 0  350000 900000 0  400000 900000 0  450000 900000 0  500000 900000 0  550000 900000 0  600000 900000 0  650000 900000 0  700000 900000 0  750000 900000 0  800000 900000 0  850000 900000 0  900000 900000 0  950000 900000 0  1000000 900000 0  0 950000 0  50000 950000 0  100000 950000 0  150000 950000 0  200000 950000 0  250000 950000 0  300000 950000 0  350000 950000 0  400000 950000 0  450000 950000 0  500000 950000 0  550000 950000 0  600000 950000 0  650000 950000 0  700000 950000 0  750000 950000 0  800000 950000 0  850000 950000 0  900000 950000 0  950000 950000 0  1000000 950000 0  0 1000000 0  50000 1000000 0  100000 1000000 0  150000 1000000 0  200000 1000000 0  250000 1000000 0  300000 1000000 0  350000 1000000 0  400000 1000000 0  450000 1000000 0  500000 1000000 0  550000 1000000 0  600000 1000000 0  650000 1000000 0  700000 1000000 0  750000 1000000 0  800000 1000000 0  850000 1000000 0  900000 1000000 0  950000 1000000 0  1000000 1000000 0  0 1050000 0  50000 1050000 0  100000 1050000 0  150000 1050000 0  200000 1050000 0  250000 1050000 0  300000 1050000 0  350000 1050000 0  400000 1050000 0  450000 1050000 0  500000 1050000 0  550000 1050000 0  600000 1050000 0  650000 1050000 0  700000 1050000 0  750000 1050000 0  800000 1050000 0  850000 1050000 0  900000 1050000 0  950000 1050000 0  1000000 1050000 0  0 1100000 0  50000 1100000 0  100000 1100000 0  150000 1100000 0  200000 1100000 0  250000 1100000 0  300000 1100000 0  350000 1100000 0  400000 1100000 0  450000 1100000 0  500000 1100000 0  550000 1100000 0  600000 1100000 0  650000 1100000 0  700000 1100000 0  750000 1100000 0  800000 1100000 0  850000 1100000 0  900000 1100000 0  950000 1100000 0  1000000 1100000 0  0 1150000 0  50000 1150000 0  100000 1150000 0  150000 1150000 0  200000 1150000 0  250000 1150000 0  300000 1150000 0  350000 1150000 0  400000 1150000 0  450000 1150000 0  500000 1150000 0  550000 1150000 0  600000 1150000 0  650000 1150000 0  700000 1150000 0  750000 1150000 0  800000 1150000 0  850000 1150000 0  900000 1150000 0  950000 1150000 0  1000000 1150000 0  0 1200000 0  50000 1200000 0  100000 1200000 0  150000 1200000 0  200000 1200000 0  250000 1200000 0  300000 1200000 0  350000 1200000 0  400000 1200000 0  450000 1200000 0  500000 1200000 0  550000 1200000 0  600000 1200000 0  650000 1200000 0  700000 1200000 0  750000 1200000 0  800000 1200000 0  850000 1200000 0  900000 1200000 0  950000 1200000 0  1000000 1200000 0  0 1250000 0  50000 1250000 0  100000 1250000 0  150000 1250000 0  200000 1250000 0  250000 1250000 0  300000 1250000 0  350000 1250000 0  400000 1250000 0  450000 1250000 0  500000 1250000 0  550000 1250000 0  600000 1250000 0  650000 1250000 0  700000 1250000 0  750000 1250000 0  800000 1250000 0  850000 1250000 0  900000 1250000 0  950000 1250000 0  1000000 1250000 0  0 1300000 0  50000 1300000 0  100000 1300000 0  150000 1300000 0  200000 1300000 0  250000 1300000 0  300000 1300000 0  350000 1300000 0  400000 1300000 0  450000 1300000 0  500000 1300000 0  550000 1300000 0  600000 1300000 0  650000 1300000 0  700000 1300000 0  750000 1300000 0  800000 1300000 0  850000 1300000 0  900000 1300000 0  950000 1300000 0  1000000 1300000 0  0 1350000 0  50000 1350000 0  100000 1350000 0  150000 1350000 0  200000 1350000 0  250000 1350000 0  300000 1350000 0  350000 1350000 0  400000 1350000 0  450000 1350000 0  500000 1350000 0  550000 1350000 0  600000 1350000 0  650000 1350000 0  700000 135
[...]
<PointData  Vectors="f_5995"> 
<DataArray  type="Float64"  Name="f_5995"  NumberOfComponents="3" format="ascii">1.8312203184596220e-12 3.2866433737205739e-12 0.0000000000000000e+00  8.0002151614424792e-08 2.3222323288737236e-12 0.0000000000000000e+00  8.0001634054981067e-08 9.0958690076585332e-13 0.0000000000000000e+00  8.0001085988508711e-08 2.4203847392950154e-13 0.0000000000000000e+00  8.0000891089359122e-08 8.9406979586648266e-14 0.0000000000000000e+00  8.0000774620235234e-08 5.9809231000666120e-14 0.0000000000000000e+00  8.0000693638688876e-08 4.3076297960136468e-14 0.0000000000000000e+00  8.0000640444799759e-08 2.8776679595789108e-14 0.0000000000000000e+00  8.0000608200666681e-08 1.7197343215749703e-14 0.0000000000000000e+00  8.0000592275267925e-08 7.3909027318759749e-15 0.0000000000000000e+00  8.0000590463460097e-08 -1.8827388770704563e-15 0.0000000000000000e+00  8.0000602462597676e-08 -1.1797370975451211e-14 0.0000000000000000e+00  8.0000629721157691e-08 -2.3730606181016269e-14 0.0000000000000000e+00  8.0000675923689590e-08 -3.9653899411251149e-14 0.0000000000000000e+00  8.0000749021077415e-08 -6.0964172602153527e-14 0.0000000000000000e+00  8.0000864444595920e-08 -7.9057029875779359e-14 0.0000000000000000e+00  8.0001035805793782e-08 -7.0558102563431727e-14 0.0000000000000000e+00  8.0001310636825696e-08 -2.0999812897206331e-13 0.0000000000000000e+00  8.0002296781983920e-08 -1.5317664909578755e-12 0.0000000000000000e+00  8.0001772568144395e-08 -1.9590844895647263e-12 0.0000000000000000e+00  1.1139315089376806e-12 -1.9041258572549652e-12 0.0000000000000000e+00  1.3063865035347791e-12 2.6010825569649572e-12 0.0000000000000000e+00  1.1855644873162881e-08 -1.1441243663195868e-09 0.0000000000000000e+00  1.3738932882651877e-08 -8.9621253490950166e-10 0.0000000000000000e+00  1.5376604598339917e-08 -3.9237437867260872e-10 0.0000000000000000e+00  1.5946015453397057e-08 -2.2930666799229670e-10 0.0000000000000000e+00  1.6157294689400302e-08 -1.3738765873125815e-10 0.0000000000000000e+00  1.6274911982353270e-08 -7.7808595212559229e-11 0.0000000000000000e+00  1.6350938118114263e-08 -3.8240671050729185e-11 0.0000000000000000e+00  1.6398557403123650e-08 -9.7447688553704395e-12 0.0000000000000000e+00  1.6424391323083682e-08 1.3169097434020080e-11 0.0000000000000000e+00  1.6431956894217133e-08 3.3982257316158252e-11 0.0000000000000000e+00  1.6422391258285878e-08 5.5433828248385021e-11 0.0000000000000000e+00  1.6394765104145252e-08 8.0394070711684269e-11 0.0000000000000000e+00  1.6345932334298604e-08 1.1276086627317698e-10 0.0000000000000000e+00  1.6270061413132527e-08 1.5870180753344616e-10 0.0000000000000000e+00  1.6159269440710394e-08 2.2784251625441746e-10 0.0000000000000000e+00  1.6006560088472589e-08 3.3557737993597245e-10 0.0000000000000000e+00  1.5760101805202760e-08 5.5633575263997697e-10 0.0000000000000000e+00  1.4897662448721838e-08 1.4071869701621387e-09 0.0000000000000000e+00  1.1441264542717554e-08 3.9894346484329226e-09 0.0000000000000000e+00  1.5347132460217208e-12 -2.1866692444019296e-12 0.0000000000000000e+00  4.4022882167930010e-13 1.3174959752945717e-12 0.0000000000000000e+00  3.0243899758608631e-10 -2.6200609956115914e-09 0.0000000000000000e+00  1.8502199118250161e-09 -1.2908065728386738e-09 0.0000000000000000e+00  1.5724331727771559e-09 -8.1005899172935522e-10 0.0000000000000000e+00  1.8041435201158581e-09 -5.1386286341475940e-10 0.0000000000000000e+00  2.0145357055792272e-09 -3.2646505160964445e-10 0.0000000000000000e+00  2.1432471420990569e-09 -2.0882555465695444e-10 0.0000000000000000e+00  2.2245497726535612e-09 -1.3007726885751219e-10 0.0000000000000000e+00  2.2762818931233201e-09 -7.2724841179077887e-11 0.0000000000000000e+00  2.3056724893824064e-09 -2.6640294698819484e-11 0.0000000000000000e+00  2.3161187884136738e-09 1.4728043001252301e-11 0.0000000000000000e+00  2.3089666152374476e-09 5.6492448196346377e-11 0.0000000000000000e+00  2.2839540187352672e-09 1.0375848884609825e-10 0.0000000000000000e+00  2.2393844930089647e-09 1.6298874128863125e-10 0.0000000000000000e+00  2.1724022987584114e-09 2.4390252665236688e-10 0.0000000000000000e+00  2.0797585939383372e-09 3.6323976585160634e-10 0.0000000000000000e+00  1.9568247208483426e-09 5.5614027248907804e-10 0.0000000000000000e+00  1.7819642325332652e-09 9.1009047008676756e-10 0.0000000000000000e+00  1.5111600334102063e-09 1.5615280217602709e-09 0.0000000000000000e+00  1.3620761729014309e-09 2.0557567032930231e-09 0.0000000000000000e+00  1.2012347190053484e-12 -2.3045549363889203e-12 0.0000000000000000e+00  1.6243055620631042e-13 9.0175121066121896e-13 0.0000000000000000e+00  -3.7172383452422464e-10 -1.5072852586442409e-09 0.0000000000000000e+00  -4.4778306361731754e-10 -1.4149953199682880e-09 0.0000000000000000e+00  -5.4531369557427900e-10 -9.8831992782119495e-10 0.0000000000000000e+00  -5.5874323308974767e-10 -6.5606467597232894e-10 0.0000000000000000e+00  -5.0487285595601620e-10 -4.4229784067430684e-10 0.0000000000000000e+00  -4.3707829155631518e-10 -2.9671686446884172e-10 0.0000000000000000e+00  -3.8246228297548402e-10 -1.9347068580809167e-10 0.0000000000000000e+00  -3.4449714099704259e-10 -1.1554477013091841e-10 0.0000000000000000e+00  -3.2166251482023276e-10 -5.1714489113316934e-11 0.0000000000000000e+00  -3.1256574601420248e-10 5.8211230861110538e-12 0.0000000000000000e+00  -3.1641958293853521e-10 6.3321780158085357e-11 0.0000000000000000e+00  -3.3290006437045790e-10 1.2690232367882861e-10 0.0000000000000000e+00  -3.6182406620728785e-10 2.0383335879905918e-10 0.0000000000000000e+00  -4.0243044143213788e-10 3.0419202605553332e-10 0.0000000000000000e+00  -4.5189801285529734e-10 4.4346651683909372e-10 0.0000000000000000e+00  -5.0217831034771864e-10 6.4596849376879419e-10 0.0000000000000000e+00  -5.2853128455059305e-10 9.3840603787094134e-10 0.0000000000000000e+00  -4.4452702734672716e-10 1.2757647589646750e-09 0.0000000000000000e+00  -8.0382906206778036e-11 1.2904972985726314e-09 0.0000000000000000e+00  1.1633828668373324e-13 -1.2191155521473268e-12 0.0000000000000000e+00  9.9493904994201908e-14 7.0182484200085652e-13 0.0000000000000000e+00  -2.9299824438288848e-10 -1.0183802938268525e-09 0.0000000000000000e+00  -5.6519070699444322e-10 -1.1524126518276619e-09 0.0000000000000000e+00  -7.0762354309103212e-10 -9.1563160324470515e-10 0.0000000000000000e+00  -7.9453411734835353e-10 -6.7789362584331947e-10 0.0000000000000000e+00  -8.0917512674090891e-10 -4.8414240610840507e-10 0.0000000000000000e+00  -7.9628481224004107e-10 -3.3864255821415171e-10 0.0000000000000000e+00  -7.7554121290826664e-10 -2.2801213714502783e-10 0.0000000000000000e+00  -7.5663911609094263e-10 -1.4015992500477776e-10 0.0000000000000000e+00  -7.4357274619300855e-10 -6.5923888720801966e-11 0.0000000000000000e+00  -7.3754213419673661e-10 1.8522615049842350e-12 0.0000000000000000e+00  -7.3861350089125689e-10 6.9262096196135183e-11 0.0000000000000000e+00  -7.4619020261289238e-10 1.4221325250287844e-10 0.0000000000000000e+00  -7.5879986742987027e-10 2.2724772879581048e-10 0.0000000000000000e+00  -7.7327585442624528e-10 3.3231212025614552e-10 0.0000000000000000e+00  -7.8298626534848262e-10 4.6712660872214607e-10 0.0000000000000000e+00  -7.7404729462776487e-10 6.4113698390853966e-10 0.0000000000000000e+00  -7.1747568095213852e-10 8.5177866298596366e-10 0.0000000000000000e+00  -5.6189503512685921e-10 1.0458087322979310e-09 0.0000000000000000e+00  -2.7297471245309921e-10 1.0108007590747302e-09 0.0000000000000000e+00  5.4506928522351951e-14 -8.9987417109704629e-13 0.0000000000000000e+00  7.8883064999506045e-14 5.5830704450494365e-13 0.0000000000000000e+00  -2.1222828401262711e-10 -7.8444670331486209e-10 0.0000000000000000e+00  -4.3208310476861628e-10 -9.0614779299598314e-10 0.0000000000000000e+00  -5.9074338692588249e-10 -7.9044871679719987e-10 0.0000000000000000e+00  -6.8974251170638391e-10 -6.2537501390371581e-10 0.0000000000000000e+00  -7.4083256016625011e-10 -4.7264478806176256e-10 0.0000000000000000e+00  -7.6056319874403790e-10 -3.4452807174472335e-10 0.0000000000000000e+00  -7.6453338037789478e-10 -2.3888279609591619e-10 0.0000000000000000e+00  -7.6219217007351990e-10 -1.5022443393948193e-10 0.0000000000000000e+00  -7.5850788625018784e-10 -7.2591138561862757e-11 0.0000000000000000e+00  -7.5581664578794519e-10 -5.0839040018102941e-13 0.0000000000000000e+00  -7.5477839577023526e-10 7.1058361473103174e-11 0.0000000000000000e+00  -7.5477353991889848e-10 1.4699542307343540e-10 0.0000000000000000e+00  -7.5380071731406837e-10 2.3230975987057080e-10 0.0000000000000000e+00  -7.4787127121242312e-10 3.3215225938921265e-10 0.0000000000000000e+00  -7.2981479698479976e-10 4.5109437047271001e-10 0.0000000000000000e+00  -6.8747402708169963e-10 5.9043996086851515e-10 0.0000000000000000e+00  -6.0239198835500990e-10 7.4100476158945333e-10 0.0000000000000000e+00  -4.5433999875947243e-10 8.6381203217627557e-10 0.0000000000000000e+00  -2.4047960657960946e-10 8.1176630846482276e-10 0.0000000000000000e+00  9.5625033633332570e-14 -6.9443361556353314e-13 0.0000000000000000e+00  6.3233749412153405e-14 4.4636816364919827e-13 0.0000000000000000e+00  -1.5860614905426915e-10 -6.2405405357685633e-10 0.0000000000000000e+00  -3.2790190234611279e-10 -7.2685196600560336e-10 0.0000000000000000e+00  -4.6739581819565826e-10 -6.6218175715219599e-10 0.0000000000000000e+00  -5.6641131394350546e-10 -5.4947020619550899e-10 0.0000000000000000e+00  -6.3035885156893966e-10 -4.3318069252355410e-10 0.0000000000000000e+00  -6.6744017227051158e-10 -3.2651105268446043e-10 0.0000000000000000e+00  -6.8719830055048533e-10 -2.3233827388312956e-10 0.0000000000000000e+00  -6.9662317532560972e-10 -1.4904039241661415e-10 0.0000000000000000e+00  -7.0019148344623835e-10 -7.3485519644805848e-11 0.0000000000000000e+00  -7.0031044557121790e-10 -2.0846073312329978e-12 0.0000000000000000e+00  -6.9779810769744202e-10 6.8803254047603639e-11 0.0000000000000000e+00  -6.9211619353645051e-10 1.4273760002476941e-10 0.0000000000000000e+00  -6.8132218632102429e-10 2.2308263973955858e-10 0.0000000000000000e+00  -6.6176675396969929e-10 3.1267326841565398e-10 0.0000000000000000e+00  -6.2763175403681765e-10 4.1294793759683340e-10 0.0000000000000000e+00  -5.7067207780709779e-10 5.2208136084252469e-10 0.0000000000000000e+00  -4.8121685355161375e-10 6.3105387243228766e-10 0.0000000000000000e+00  -3.5220264601452154e-10 7.1123222754448038e-10 0.0000000000000000e+00  -1.8582710038310658e-10 6.5179210777312006e-10 0.0000000000000000e+00  8.7391229852802442e-14 -5.4324354584928013e-13 0.0000000000000000e+00  5.0978265203156565e-14 3.5836717256411148e-13 0.0000000000000000e+00  -1.2391896297754308e-10 -5.0039920980117312e-10 0.0000000000000000e+00  -2.5815072898590969e-10 -5.8854973829108361e-10 0.0000000000000000e+00  -3.7558900676815688e-10 -5.4841287484455731e-10 0.0000000000000000e+00  -4.6735588374443320e-10 -4.6969113906929967e-10 0.0000000000000000e+00  -5.3360808349401071e-10 -3.8158012089469164e-10 0.0000000000000000e+00  -5.7839224968374983e-10 -2.9525695086101533e-10 0.0000000000000000e+00  -6.0687166474422342e-10 -2.1457335405276784e-10 0.0000000000000000e+00  -6.2368669470455704e-10 -1.3995877452887863e-10 0.0000000000000000e+00  -6.3217494443726800e-10 -7.0147910384350305e-11 0.0000000000000000e+00  -6.3431968304126286e-10 -3.0914356619066505e-12 0.0000000000000000e+00  -6.3086300346756393e-10 6.3541545985217089e-11 0.0000000000000000e+00  -6.2139036477651848e-10 1.3205652566250129e-10 0.0000000000000000e+00  -6.0432838092349064e-10 2.0444839581569336e-10 0.0000000000000000e+00  -5.7687874640740249e-10 2.8199024506722531e-10 0.0000000000000000e+00  -5.3501555118147541e-10 3.6455623964736808e-10 0.0000000000000000e+00  -4.7383853958026767e-10 4.4951611562483500e-10 0.0000000000000000e+00  -3.8875617206417799e-10 5.2945201947125733e-10 0.0000000000000000e+00  -2.7778803483297865e-10 5.8302259789448798e-10 0.0000000000000000e+00  -1.4410237081120890e-10 5.2499946787673207e-10 0.0000000000000000e+00  6.8992337276143430e-14 -4.3288597283695858e-13 0.0000000000000000e+00  4.2144495503496401e-14 2.8735604218172941e-13 0.0000000000000000e+00  -1.0064056811922743e-10 -4.0152312863816020e-10 0.0000000000000000e+00  -2.1040696673563273e-10 -4.7611175326722297e-10 0.0000000000000000e+00  -3.0988048980852948e-10 -4.5019662323446866e-10 0.0000000000000000e+00  -3.9230865130374929e-10 -3.9351627268624638e-10 0.0000000000000000e+00  -4.5626007164229187e-10 -3.2663212085750451e-10 0.0000000000000000e+00  -5.0317855594739972e-10 -2.5775741328280113e-10 0.0000000000000000e+00  -5.3569179318252886e-10 -1.9046018128792477e-10 0.0000000000000000e+00  -5.5655769537036429e-10 -1.2593898333726056e-10 0.0000000000000000e+00  -5.6799591143242534e-10 -6.3994670067239442e-11 0.0000000000000000e+00  -5.7143387476266312e-10 -3.6613645509936445e-12 0.0000000000000000e+00  -5.6744104114357631e-10 5.6364934777249003e-11 0.0000000000000000e+00  -5.5573213785752624e-10 1.1739533061307593e-10 0.0000000000000000e+00  -5.3518847784574752e-10 1.8043737617065766e-10 0.0000000000000000e+00  -5.0391650128219610e-10 2.4583495046868099e-10 0.0000000000000000e+00  -4.5942955807795619e-10 3.1281115345172231e-10 0.0000000000000000e+00  -3.9910111037485326e-10 3.7884127891232007e-10 0.0000000000000000e+00  -3.2103535020870767e-10 4.3821046481705720e-10 0.0000000000000000e+00  -2.2530822268423358e-10 4.7499069163699271e-10 0.0000000000000000e+00  -1.1514652515801326e-10 4.2300317923991442e-10 0.0000000000000000e+00  5.4789796423090096e-14 -3.4742681069506383e-13 0.0000000000000000e+00  3.5843406815241980e-14 2.2826423249683714e-13 0.0000000000000000e+00  -8.4418162807576577e-11 -3.2001508809862154e-10 0.0000000000000000e+00  -1.7671747646436229e-10 -3.8194863426091891e-10 0.0000000000000000e+00  -2.6228352047387628e-10 -3.6493784248741221e-10 0.0000000000000000e+00  -3.3588322145807975e-10 -3.2340593734851890e-10 0.0000000000000000e+00  -3.9573276413430203e-10 -2.7255148619741027e-10 0.0000000000000000e+00  -4.4194440449453015e-10 -2.1823739254433957e-10 0.0000000000000000e+00  -4.7564917993141905e-10 -1.6335116794582839e-10 0.0000000000000000e+00  -4.9831351869196035e-10 -1.0922154799939646e-10 0.0000000000000000e+00  -5.1126596532953175e-10 -5.6175532756250863e-11 0.0000000000000000e+00  -5.1542555476850141e-10 -3.9205280968485652e-12 0.0000000000000000e+00  -5.1118129429120906e-10 4.8137247061491387e-11 0.0000000000000000e+00  -4.9835974475529922e-10 1.0061295074832418e-10 0.0000000000000000e+00  -4.7625380672735255e-10 1.5387668380467693e-10 0.0000000000000000e+00  -4.4372208461134906e-10 2.0777971318234510e-10 0.0000000000000000e+00  -3.9940025400831708e-10 2.6136541058963246e-10 0.0000000000000000e+00  -3.4207909869785925e-10 3.1251544203675346e-10 0.0000000000000000e+00  -2.7127154529925858e-10 3.5697846382637172e-10 0.0000000000000000e+00  -1.8789460153480538e-10 3.8289528239113519e-10 0.0000000000000000e+00  -9.4920308870826000e-11 3.3877132701079373e-10 0.0000000000000000e+00  4.4889791469807783e-14 -2.7816381317050575e-13 0.0000000000000000e+00  3.1314135055155143e-14 1.7768170688462202e-13 0.0000000000000000e+00  -7.2874003225036366e-11 -2.5084752624932816e-10 0.0000000000000000e+00  -1.5251237869435558e-10 -3.0120095161927393e-10 0.0000000000000000e+00  -2.2744710545820068e-10 -2.9003334248311888e-10 0.0000000000000000e+00  -2.9351423031911204e-10 -2.5953881163633183e-10 0.0000000000000000e+00  -3.4893085750695498e-10 -2.2111789349912378e-10 0.0000000000000000e+00  -3.9318343825986713e-10 -1.7898238498112176e-10 0.0000000000000000e+00  -4.2653884578008062e-10 -1.3531960171603923e-10 0.0000000000000000e+00  -4.4963650746918836e-10 -9.1324216772125156e-11 0.0000000000000000e+00  -4.6316684906257616e-10 -4.7519505614369323e-11 0.0000000000000000e+00  -4.6765345598668349e-10 -3.9808450859588599e-12 0.0000000000000000e+00  -4.6333434267631050e-10 3.9449340465106511e-11 0.0000000000000000e+00  -4.5012190562598713e-10 8.2952835744420246e-11 0.0000000000000000e+00  -4.2762979880097212e-10 1.2653389769607429e-10 0.0000000000000000e+00  -3.9526943389074065e-10 1.6982734235205562e-10 0.0000000000000000e+00  -3.5242963673303905e-10 2.1192239691442027e-10 0.0000000000000000e+00  -2.9875002029492935e-10 2.5116221984699056e-10 0.0000000000000000e+00  -2.3447508930929131e-10 2.8446730824253098e-10 0.0000000000000000e+00  -1.6084280594487771e-10 3.0309948153191841e-10 0.0000000000000000e+00  -8.0516181937307984e-11 2.6737181003336493e-10 0.0000000000000000e+00  3.7856448935214619e-14 -2.2027169860754047e-13 0.0000000000000000e+00  2.8086986138907661e-14 1.3321552894146463e-13 0.0000000000000000e+00  -6.4655559477951073e-11 -1.9053648894634899e-10 0.0000000000000000e+00  -1.3511352028065124e-10 -2.3034717224143787e-10 0.0000000000000000e+00  -2.0204541794263215e-10 -2.2323302831817950e-10 0.0000000000000000e+00  -2.6203756279385395e-10 -2.0121812170172453e-10 0.0000000000000000e+00  -3.1340863392143840e-10 -1.7281264535867879e-10 0.0000000000000000e+00  -3.5535889658314520e-10 -1.4104248773139401e-10 0.0000000000000000e+00  -3.8767331289894020e-10 -1.0750434400014892e-10 0.0000000000000000e+00  -4.1048155741839018e-10 -7.3165281412816583e-11 0.0000000000000000e+00  -4.2404880692502672e-10 -3.8562375151469871e-11 0.0000000000000000e+00  -4.2861847479373450e-10 -3.9316252534804254e-12 0.0000000000000000e+00  -4.2431639520413324e-10 3.0655709176470911e-11 0.0000000000000000e+00  -4.1111533983872263e-10 6.5149783811224945e-11 0.0000000000000000e+00  -3.8885657433932054e-10 9.9381703588935695e-11 0.0000000000000000e+00  -3.5732789533755429e-10 1.3293660445152924e-10 0.0000000000000000e+00  -3.1639824810810737e-10 1.6504965710382173e-10 0.0000000000000000e+00  -2.6620298685656370e-10 1.9449390055853716e-10 0.0000000000000000e+00  -2.0736210443201089e-10 2.1911404544233047e-10 0.0000000000000000e+00  -1.4121368841400897e-10 2.3265292939286434e-10 0.0000000000000000e+00  -7.0160839308006368e-11 2.0531861068422228e-10 0.0000000000000000e+00  3.2777664505316053e-14 -1.7055928341016634e-13 0.0000000000000000e+00  2.5881469566478378e-14 9.3075247770674604e-14 0.0000000000000000e+00  -5.8963164636623170e-11 -1.3653416758768450e-10 0.0000000000000000e+00  -1.2291024833061032e-10 -1.6669238033434353e-10 0.0000000000000000e+00  -1.8400525653131576e-10 -1.6258592783165965e-10 0.0000000000000000e+00  -2.3935858427856356e-10 -1.4743865880754877e-10 0.0000000000000000e+00  -2.8740471787158823e-10 -1.2744079735868791e-10 0.0000000000000000e+00  -3.2722013135790356e-10 -1.0472537750953656e-10 0.0000000000000000e+00  -3.5832877164371354e-10 -8.0412176850243454e-11 0.0000000000000000e+00  -3.8055779291104741e-10 -5.5221293726568128e-11 0.0000000000000000e+00  -3.9390410031852887e-10 -2.9608290078768859e-11 0.0000000000000000e+00  -3.9842592864896513e-10 -3.8381201865299877e-12 0.0000000000000000e+00  -3.9417215500441149e-10 2.1932728293830629e-11 0.0000000000000000e+00  -3.8115478109086704e-10 4.7564744192167182e-11 0.0000000000000000e+00  -3.5936526979294717e-10 7.2844432243330302e-11 0.0000000000000000e+00  -3.2883291861971186e-10 9.7405002054443244e-11 0.0000000000000000e+00  -2.8972031382192024e-10 1.2066780743505641e-10 0.0000000000000000e+00  -2.4244567554134421e-10 1.4178477761761416e-10 0.0000000000000000e+00  -1.8781833435014872e-10 1.5934305758123608e-10 0.0000000000000000e+00  -1.2719078512142420e-10 1.6914802690718569e-10 0.0000000000000000e+00  -6.2783989255424634e-11 1.5002258580095814e-10 0.0000000000000000e+00  2.9124405430163506e-14 -1.2672793481811165e-13 0.0000000000000000e+00  2.4529844500129941e-14 5.5834774716368860e-14 0.0000000000000000e+00  -5.5319324203116519e-11 -8.6854250486539946e-11 0.0000000000000000e+00  -1.1492634077509457e-10 -1.0806864915527929e-10 0.0000000000000000e+00  -1.7203600670022086e-10 -1.0637461156029964e-10 0.0000000000000000e+00  -2.2411935885064452e-10 -9.7097213299060229e-11 0.0000000000000000e+00  -2.6970932009844981e-10 -8.4466540794130275e-11 0.0000000000000000e+00  -3.0783595430667904e