<?xml version="1.0"?>
<VTKFile type="UnstructuredGrid"  version="0.1"  >
<UnstructuredGrid>
<Piece  NumberOfPoints="651" NumberOfCells="1200">
<Points>
<DataArray  type="Float64"  NumberOfComponents="3"  format="ascii">0 0 0  50000 0 0  100000 0 0  150000 0 0  200000 0 0  250000 0 0  300000 0 0  350000 0 0  400000 0 0  450000 0 0  500000 0 0  550000 0 0  600000 0 0  650000 0 0  700000 0 0  750000 0 0  800000 0 0  850000 0 0  900000 0 0  950000 0 0  1000000 0 0  0 50000 0  50000 50000 0  100000 50000 0  150000 50000 0  200000 50000 0  250000 50000 0  300000 50000 0  350000 50000 0  400000 50000 0  450000 50000 0  500000 50000 0  550000 50000 0  600000 50000 0  650000 50000 0  700000 50000 0  750000 50000 0  800000 50000 0  850000 50000 0  900000 50000 0  950000 50000 0  1000000 50000 0  0 100000 0  50000 100000 0  100000 100000 0  150000 100000 0  200000 100000 0  250000 100000 0  300000 100000 0  350000 100000 0  400000 100000 0  450000 100000 0  500000 100000 0  550000 100000 0  600000 100000 0  650000 100000 0  700000 100000 0  750000 100000 0  800000 100000 0  850000 100000 0  900000 100000 0  950000 100000 0  1000000 100000 0  0 150000 0  50000 150000 0  100000 150000 0  150000 150000 0  200000 150000 0  250000 150000 0  300000 150000 0  350000 150000 0  400000 150000 0  450000 150000 0  500000 150000 0  550000 150000 0  600000 150000 0  650000 150000 0  700000 150000 0  750000 150000 0  800000 150000 0  850000 150000 0  900000 150000 0  950000 150000 0  1000000 150000 0  0 200000 0  50000 200000 0  100000 200000 0  150000 200000 0  200000 200000 0  250000 200000 0  300000 200000 0  350000 200000 0  400000 200000 0  450000 200000 0  500000 200000 0  550000 200000 0  600000 200000 0  650000 200000 0  700000 200000 0  750000 200000 0  800000 200000 0  850000 200000 0  900000 200000 0  950000 200000 0  1000000 200000 0  0 250000 0  50000 250000 0  100000 250000 0  150000 250000 0  200000 250000 0  250000 250000 0  300000 250000 0  350000 250000 0  400000 250000 0  450000 250000 0  500000 250000 0  550000 250000 0  600000 250000 0  650000 250000 0  700000 250000 0  750000 250000 0  800000 250000 0  850000 250000 0  900000 250000 0  950000 250000 0  1000000 250000 0  0 300000 0  50000 300000 0  100000 300000 0  150000 300000 0  200000 300000 0  250000 300000 0  300000 300000 0  350000 300000 0  400000 300000 0  450000 300000 0  500000 300000 0  550000 300000 0  600000 300000 0  650000 300000 0  700000 300000 0  750000 300000 0  800000 300000 0  850000 300000 0  900000 300000 0  950000 300000 0  1000000 300000 0  0 350000 0  50000 350000 0  100000 350000 0  150000 350000 0  200000 350000 0  250000 350000 0  300000 350000 0  350000 350000 0  400000 350000 0  450000 350000 0  500000 350000 0  550000 350000 0  600000 350000 0  650000 350000 0  700000 350000 0  750000 350000 0  800000 350000 0  850000 350000 0  900000 350000 0  950000 350000 0  1000000 350000 0  0 400000 0  50000 400000 0  100000 400000 0  150000 400000 0  200000 400000 0  250000 400000 0  300000 400000 0  350000 400000 0  400000 400000 0  450000 400000 0  500000 400000 0  550000 400000 0  600000 400000 0  650000 400000 0  700000 400000 0  750000 400000 0  800000 400000 0  850000 400000 0  900000 400000 0  950000 400000 0  1000000 400000 0  0 450000 0  50000 450000 0  100000 450000 0  150000 450000 0  200000 450000 0  250000 450000 0  300000 450000 0  350000 450000 0  400000 450000 0  450000 450000 0  500000 450000 0  550000 450000 0  600000 450000 0  650000 450000 0  700000 450000 0  750000 450000 0  800000 450000 0  850000 450000 0  900000 450000 0  950000 450000 0  1000000 450000 0  0 500000 0  50000 500000 0  100000 500000 0  150000 500000 0  200000 500000 0  250000 500000 0  300000 500000 0  350000 500000 0  400000 500000 0  450000 500000 0  500000 500000 0  550000 500000 0  600000 500000 0  650000 500000 0  700000 500000 0  750000 500000 0  800000 500000 0  850000 500000 0  900000 500000 0  950000 500000 0  1000000 500000 0  0 550000 0  50000 550000 0  100000 550000 0  150000 550000 0  200000 550000 0  250000 550000 0  300000 550000 0  350000 550000 0  400000 550000 0  450000 550000 0  500000 550000 0  550000 550000 0  600000 550000 0  650000 550000 0  700000 550000 0  750000 550000 0  800000 550000 0  850000 550000 0  900000 550000 0  950000 550000 0  1000000 550000 0  0 600000 0  50000 600000 0  100000 600000 0  150000 600000 0  200000 600000 0  250000 600000 0  300000 600000 0  350000 600000 0  400000 600000 0  450000 600000 0  500000 600000 0  550000 600000 0  600000 600000 0  650000 600000 0  700000 600000 0  750000 600000 0  800000 600000 0  850000 600000 0  900000 600000 0  950000 600000 0  1000000 600000 0  0 650000 0  50000 650000 0  100000 650000 0  150000 650000 0  200000 650000 0  250000 650000 0  300000 650000 0  350000 650000 0  400000 650000 0  450000 650000 0  500000 650000 0  550000 650000 0  600000 650000 0  650000 650000 0  700000 650000 0  750000 650000 0  800000 650000 0  850000 650000 0  900000 650000 0  950000 650000 0  1000000 650000 0  0 700000 0  50000 700000 0  100000 700000 0  150000 700000 0  200000 700000 0  250000 700000 0  300000 700000 0  350000 700000 0  400000 700000 0  450000 700000 0  500000 700000 0  550000 700000 0  600000 700000 0  650000 700000 0  700000 700000 0  750000 700000 0  800000 700000 0  850000 700000 0  900000 700000 0  950000 700000 0  1000000 700000 0  0 750000 0  50000 750000 0  100000 750000 0  150000 750000 0  200000 750000 0  250000 750000 0  300000 750000 0  350000 750000 0  400000 750000 0  450000 750000 0  500000 750000 0  550000 750000 0  600000 750000 0  650000 750000 0  700000 750000 0  750000 750000 0  800000 750000 0  850000 750000 0  900000 750000 0  950000 750000 0  1000000 750000 0  0 800000 0  50000 800000 0  100000 800000 0  150000 800000 0  200000 800000 0  250000 800000 0  300000 800000 0  350000 800000 0  400000 800000 0  450000 800000 0  500000 800000 0  550000 800000 0  600000 800000 0  650000 800000 0  700000 800000 0  750000 800000 0  800000 800000 0  850000 800000 0  900000 800000 0  950000 800000 0  1000000 800000 0  0 850000 0  50000 850000 0  100000 850000 0  150000 850000 0  200000 850000 0  250000 850000 0  300000 850000 0  350000 850000 0  400000 850000 0  450000 850000 0  500000 850000 0  550000 850000 0  600000 850000 0  650000 850000 0  700000 850000 0  750000 850000 0  800000 850000 0  850000 850000 0  900000 850000 0  950000 850000 0  1000000 850000 0  0 900000 0  50000 900000 0  100000 900000 0  150000 900000 0  200000 900000 0  250000 900000 0  300000 900000 0  350000 900000 0  400000 900000 0  450000 900000 0  500000 900000 0  550000 900000 0  600000 900000 0  650000 900000 0  700000 900000 0  750000 900000 0  800000 900000 0  850000 900000 0  900000 900000 0  950000 900000 0  1000000 900000 0  0 950000 0  50000 950000 0  100000 950000 0  150000 950000 0  200000 950000 0  250000 950000 0  300000 950000 0  350000 950000 0  400000 950000 0  450000 950000 0  500000 950000 0  550000 950000 0  600000 950000 0  650000 950000 0  700000 950000 0  750000 950000 0  800000 950000 0  850000 950000 0  900000 950000 0  950000 950000 0  1000000 950000 0  0 1000000 0  50000 1000000 0  100000 1000000 0  150000 1000000 0  200000 1000000 0  250000 1000000 0  300000 1000000 0  350000 1000000 0  400000 1000000 0  450000 1000000 0  500000 1000000 0  550000 1000000 0  600000 1000000 0  650000 1000000 0  700000 1000000 0  750000 1000000 0  800000 1000000 0  850000 1000000 0  900000 1000000 0  950000 1000000 0  1000000 1000000 0  0 1050000 0  50000 1050000 0  100000 1050000 0  150000 1050000 0  200000 1050000 0  250000 1050000 0  300000 1050000 0  350000 1050000 0  400000 1050000 0  450000 1050000 0  500000 1050000 0  550000 1050000 0  600000 1050000 0  650000 1050000 0  700000 1050000 0  750000 1050000 0  800000 1050000 0  850000 1050000 0  900000 1050000 0  950000 1050000 0  1000000 1050000 0  0 1100000 0  50000 1100000 0  100000 1100000 0  150000 1100000 0  200000 1100000 0  250000 1100000 0  300000 1100000 0  350000 1100000 0  400000 1100000 0  450000 1100000 0  500000 1100000 0  550000 1100000 0  600000 1100000 0  650000 1100000 0  700000 1100000 0  750000 1100000 0  800000 1100000 0  850000 1100000 0  900000 1100000 0  950000 1100000 0  1000000 1100000 0  0 1150000 0  50000 1150000 0  100000 1150000 0  150000 1150000 0  200000 1150000 0  250000 1150000 0  300000 1150000 0  350000 1150000 0  400000 1150000 0  450000 1150000 0  500000 1150000 0  550000 1150000 0  600000 1150000 0  650000 1150000 0  700000 1150000 0  750000 1150000 0  800000 1150000 0  850000 1150000 0  900000 1150000 0  950000 1150000 0  1000000 1150000 0  0 1200000 0  50000 1200000 0  100000 1200000 0  150000 1200000 0  200000 1200000 0  250000 1200000 0  300000 1200000 0  350000 1200000 0  400000 1200000 0  450000 1200000 0  500000 1200000 0  550000 1200000 0  600000 1200000 0  650000 1200000 0  700000 1200000 0  750000 1200000 0  800000 1200000 0  850000 1200000 0  900000 1200000 0  950000 1200000 0  1000000 1200000 0  0 1250000 0  50000 1250000 0  100000 1250000 0  150000 1250000 0  200000 1250000 0  250000 1250000 0  300000 1250000 0  350000 1250000 0  400000 1250000 0  450000 1250000 0  500000 1250000 0  550000 1250000 0  600000 1250000 0  650000 1250000 0  700000 1250000 0  750000 1250000 0  800000 1250000 0  850000 1250000 0  900000 1250000 0  950000 1250000 0  1000000 1250000 0  0 1300000 0  50000 1300000 0  100000 1300000 0  150000 1300000 0  200000 1300000 0  250000 1300000 0  300000 1300000 0  350000 1300000 0  400000 1300000 0  450000 1300000 0  500000 1300000 0  550000 1300000 0  600000 1300000 0  650000 1300000 0  700000 1300000 0  750000 1300000 0  800000 1300000 0  850000 1300000 0  900000 1300000 0  950000 1300000 0  1000000 1300000 0  0 1350000 0  50000 1350000 0  100000 1350000 0  150000 1350000 0  200000 1350000 0  250000 1350000 0  300000 1350000 0  350000 1350000 0  400000 1350000 0  450000 1350000 0  500000 1350000 0  550000 1350000 0  600000 1350000 0  650000 1350000 0  700000 135
[...]
<PointData  Vectors="f_5995"> 
<DataArray  type="Float64"  Name="f_5995"  NumberOfComponents="3" format="ascii">1.8087066827878826e-12 3.2944839195988698e-12 0.0000000000000000e+00  8.0002152859037601e-08 2.3231383788740063e-12 0.0000000000000000e+00  8.0001694542213747e-08 9.4782234760280073e-13 0.0000000000000000e+00  8.0001109492310876e-08 2.5459592377648826e-13 0.0000000000000000e+00  8.0000904024336327e-08 8.9161323009083100e-14 0.0000000000000000e+00  8.0000788084786517e-08 5.9914061227296425e-14 0.0000000000000000e+00  8.0000706574413774e-08 4.4064024617395871e-14 0.0000000000000000e+00  8.0000652275063664e-08 2.9501303196157237e-14 0.0000000000000000e+00  8.0000619396628495e-08 1.7571750209393401e-14 0.0000000000000000e+00  8.0000603284931155e-08 7.5599900549102931e-15 0.0000000000000000e+00  8.0000601617122978e-08 -1.8866261774243987e-15 0.0000000000000000e+00  8.0000614093088344e-08 -1.2099450499368976e-14 0.0000000000000000e+00  8.0000642294972091e-08 -2.4946897259623240e-14 0.0000000000000000e+00  8.0000691012390008e-08 -4.2316157264114242e-14 0.0000000000000000e+00  8.0000771754139803e-08 -5.7684783080439494e-14 0.0000000000000000e+00  8.0000894995877893e-08 -4.8732073529279658e-14 0.0000000000000000e+00  8.0001021898526488e-08 -1.2905878800108269e-13 0.0000000000000000e+00  8.0001255377809862e-08 -1.1425239109365637e-12 0.0000000000000000e+00  8.0002282289188094e-08 -3.1913484529343417e-12 0.0000000000000000e+00  7.9988765130793451e-08 1.0194098179923252e-11 0.0000000000000000e+00  -1.4808465621751291e-11 1.4000306945486132e-11 0.0000000000000000e+00  1.2846944622218656e-12 2.6122706601886458e-12 0.0000000000000000e+00  1.2053076951762688e-08 -1.1461158670748676e-09 0.0000000000000000e+00  1.3915157485239660e-08 -9.0824813962462443e-10 0.0000000000000000e+00  1.5574944671712166e-08 -4.0594599197720413e-10 0.0000000000000000e+00  1.6152779119868369e-08 -2.4460339949937200e-10 0.0000000000000000e+00  1.6364290931920194e-08 -1.5366921053068131e-10 0.0000000000000000e+00  1.6480773676923315e-08 -9.4440059922799603e-11 0.0000000000000000e+00  1.6555968375363239e-08 -5.5029730978624861e-11 0.0000000000000000e+00  1.6603094455306427e-08 -2.6642937785460182e-11 0.0000000000000000e+00  1.6628666805992029e-08 -3.8215788305472562e-12 0.0000000000000000e+00  1.6636153517116496e-08 1.6903167800320314e-11 0.0000000000000000e+00  1.6626681278093170e-08 3.8259347851614781e-11 0.0000000000000000e+00  1.6599337151584947e-08 6.3103931980013496e-11 0.0000000000000000e+00  1.6551026199299248e-08 9.5311327358197344e-11 0.0000000000000000e+00  1.6476049437628208e-08 1.4097765892897516e-10 0.0000000000000000e+00  1.6366879767200758e-08 2.0950109832640149e-10 0.0000000000000000e+00  1.6217072248474675e-08 3.1606698850418640e-10 0.0000000000000000e+00  1.5972392319460443e-08 5.3816249821755668e-10 0.0000000000000000e+00  1.5089248187628131e-08 1.4089572884109701e-09 0.0000000000000000e+00  1.1513721954553248e-08 4.0341886140935608e-09 0.0000000000000000e+00  -1.0628000827210805e-11 1.0811647149367642e-11 0.0000000000000000e+00  4.6718319105518537e-13 1.3715614123807534e-12 0.0000000000000000e+00  3.4120605627608518e-10 -2.6262137313305784e-09 0.0000000000000000e+00  1.9359404738162665e-09 -1.2868030692131665e-09 0.0000000000000000e+00  1.6535856481669580e-09 -8.0969802932239217e-10 0.0000000000000000e+00  1.8842543685126956e-09 -5.1579272105030654e-10 0.0000000000000000e+00  2.0959420823914543e-09 -3.2982841656067253e-10 0.0000000000000000e+00  2.2248070180456525e-09 -2.1299630770240223e-10 0.0000000000000000e+00  2.3057702789974683e-09 -1.3470158323500550e-10 0.0000000000000000e+00  2.3571899666214415e-09 -7.7651336535671496e-11 0.0000000000000000e+00  2.3863997555641994e-09 -3.1803143660551800e-11 0.0000000000000000e+00  2.3967978338596341e-09 9.3561726454124414e-12 0.0000000000000000e+00  2.3897295128086970e-09 5.0912162124528974e-11 0.0000000000000000e+00  2.3649465265104487e-09 9.7943187821347992e-11 0.0000000000000000e+00  2.3207869916341303e-09 1.5687347080972348e-10 0.0000000000000000e+00  2.2544670547764306e-09 2.3735477678660418e-10 0.0000000000000000e+00  2.1628385347835084e-09 3.5603188245746236e-10 0.0000000000000000e+00  2.0410165895683155e-09 5.4816590274061896e-10 0.0000000000000000e+00  1.8647649890767368e-09 9.0252995324618405e-10 0.0000000000000000e+00  1.5810769287004311e-09 1.5575691577762321e-09 0.0000000000000000e+00  1.3909105087604979e-09 2.0536652970331506e-09 0.0000000000000000e+00  2.8531638257253075e-12 -2.2903069701475332e-12 0.0000000000000000e+00  1.7238110727519010e-13 9.2118538179442257e-13 0.0000000000000000e+00  -3.6500361009757974e-10 -1.5023224744656118e-09 0.0000000000000000e+00  -4.2392560167429245e-10 -1.4096363944694013e-09 0.0000000000000000e+00  -5.1979870415567475e-10 -9.8395868505710092e-10 0.0000000000000000e+00  -5.3231016807506379e-10 -6.5361887626478771e-10 0.0000000000000000e+00  -4.7911388687278276e-10 -4.4113465303427503e-10 0.0000000000000000e+00  -4.1146290973481994e-10 -2.9634587257333249e-10 0.0000000000000000e+00  -3.5689875662609265e-10 -1.9364920349315850e-10 0.0000000000000000e+00  -3.1902630032348572e-10 -1.1613408845215742e-10 0.0000000000000000e+00  -2.9626204406865613e-10 -5.2636870206031408e-11 0.0000000000000000e+00  -2.8717267338817626e-10 4.6005362278294027e-12 0.0000000000000000e+00  -2.9095613968583997e-10 6.1804519008342556e-11 0.0000000000000000e+00  -3.0727997850720841e-10 1.2505746539901821e-10 0.0000000000000000e+00  -3.3595402838355304e-10 2.0159124390157331e-10 0.0000000000000000e+00  -3.7622337857392360e-10 3.0143439392128855e-10 0.0000000000000000e+00  -4.2535063436194402e-10 4.4003092995043998e-10 0.0000000000000000e+00  -4.7565877187097872e-10 6.4169048877615578e-10 0.0000000000000000e+00  -5.0333855700685433e-10 9.3295493930302553e-10 0.0000000000000000e+00  -4.2288822323903776e-10 1.2672191655424834e-09 0.0000000000000000e+00  -6.5109351775816550e-11 1.2758272155083381e-09 0.0000000000000000e+00  1.0464525022464778e-12 -1.1623911382045938e-12 0.0000000000000000e+00  9.9234560606628214e-14 7.1127255798970342e-13 0.0000000000000000e+00  -2.9096024784886442e-10 -1.0094560007816924e-09 0.0000000000000000e+00  -5.5889236046750923e-10 -1.1472166877593772e-09 0.0000000000000000e+00  -6.9816393648213142e-10 -9.1103676596106223e-10 0.0000000000000000e+00  -7.8509900397211530e-10 -6.7468950644433866e-10 0.0000000000000000e+00  -7.9956757084256337e-10 -4.8191531983603519e-10 0.0000000000000000e+00  -7.8669523505949378e-10 -3.3713986450077438e-10 0.0000000000000000e+00  -7.6600595534887800e-10 -2.2706511094433793e-10 0.0000000000000000e+00  -7.4713117521314143e-10 -1.3966008222031138e-10 0.0000000000000000e+00  -7.3407353750384486e-10 -6.5807355065238218e-11 0.0000000000000000e+00  -7.2802686587316380e-10 1.6155604329151098e-12 0.0000000000000000e+00  -7.2904849909852804e-10 6.8671736216034929e-11 0.0000000000000000e+00  -7.3654052500613063e-10 1.4123792215617371e-10 0.0000000000000000e+00  -7.4904215247909731e-10 2.2582175946069229e-10 0.0000000000000000e+00  -7.6342553242056545e-10 3.3032991833581212e-10 0.0000000000000000e+00  -7.7315705822957466e-10 4.6443212314243201e-10 0.0000000000000000e+00  -7.6453615781528002e-10 6.3746661131500290e-10 0.0000000000000000e+00  -7.0872545789604154e-10 8.4650087345063859e-10 0.0000000000000000e+00  -5.5411899239646972e-10 1.0374703068443956e-09 0.0000000000000000e+00  -2.6649145197605603e-10 9.9900431439819038e-10 0.0000000000000000e+00  1.1208257726622017e-13 -8.8350401771630607e-13 0.0000000000000000e+00  7.9306615442550743e-14 5.6786392641903491e-13 0.0000000000000000e+00  -2.1128119740559504e-10 -7.7677267416974871e-10 0.0000000000000000e+00  -4.2924125752956289e-10 -9.0070366422429669e-10 0.0000000000000000e+00  -5.8641627703904796e-10 -7.8643010285905153e-10 0.0000000000000000e+00  -6.8485758290242315e-10 -6.2225755838137274e-10 0.0000000000000000e+00  -7.3570660323124880e-10 -4.7029945136192853e-10 0.0000000000000000e+00  -7.5534021786968375e-10 -3.4282093037229571e-10 0.0000000000000000e+00  -7.5925378681237324e-10 -2.3770081241864877e-10 0.0000000000000000e+00  -7.5688530409959491e-10 -1.4949083246865384e-10 0.0000000000000000e+00  -7.5318126474798415e-10 -7.2257424096800479e-11 0.0000000000000000e+00  -7.5046818373416848e-10 -5.5206034973496573e-13 0.0000000000000000e+00  -7.4940442902208671e-10 7.0634634092352226e-11 0.0000000000000000e+00  -7.4937604745506535e-10 1.4616302851660731e-10 0.0000000000000000e+00  -7.4839961880596777e-10 2.3101178933356749e-10 0.0000000000000000e+00  -7.4252451164518724e-10 3.3029883100664199e-10 0.0000000000000000e+00  -7.2464401983949264e-10 4.4855008684198076e-10 0.0000000000000000e+00  -6.8267287617575749e-10 5.8698444293544469e-10 0.0000000000000000e+00  -5.9816785709742664e-10 7.3624519477137122e-10 0.0000000000000000e+00  -4.5081802319066508e-10 8.5716263381133734e-10 0.0000000000000000e+00  -2.3792206801582507e-10 8.0350291687058357e-10 0.0000000000000000e+00  6.5457569132226816e-14 -7.2192632215713547e-13 0.0000000000000000e+00  6.4502147394715958e-14 4.5473440741039702e-13 0.0000000000000000e+00  -1.5798520486193971e-10 -6.1806660734567917e-10 0.0000000000000000e+00  -3.2602449089822428e-10 -7.2199947105055413e-10 0.0000000000000000e+00  -4.6463458163825324e-10 -6.5862135366314521e-10 0.0000000000000000e+00  -5.6306755769799036e-10 -5.4664853723451650e-10 0.0000000000000000e+00  -6.2671601296332987e-10 -4.3098754582093338e-10 0.0000000000000000e+00  -6.6360211933047567e-10 -3.2485740577870118e-10 0.0000000000000000e+00  -6.8324503967035449e-10 -2.3116107738663267e-10 0.0000000000000000e+00  -6.9259842002881655e-10 -1.4828923619761741e-10 0.0000000000000000e+00  -6.9612309759149276e-10 -7.3126665871548452e-11 0.0000000000000000e+00  -6.9621865352995933e-10 -2.1027402009591116e-12 0.0000000000000000e+00  -6.9370188883594454e-10 6.8404354265502123e-11 0.0000000000000000e+00  -6.8804128840900132e-10 1.4193422041486073e-10 0.0000000000000000e+00  -6.7731083272453120e-10 2.2183000450329810e-10 0.0000000000000000e+00  -6.5788910577103638e-10 3.1090370337254587e-10 0.0000000000000000e+00  -6.2399502683769307e-10 4.1056694834096135e-10 0.0000000000000000e+00  -5.6741750551339517e-10 5.1895927178084861e-10 0.0000000000000000e+00  -4.7849698042294173e-10 6.2701164706970534e-10 0.0000000000000000e+00  -3.5015224507476637e-10 7.0603363672012803e-10 0.0000000000000000e+00  -1.8457844328105109e-10 6.4565878040786866e-10 0.0000000000000000e+00  8.4638698533818881e-14 -5.6225086745792404e-13 0.0000000000000000e+00  5.1998375870761001e-14 3.6493924133561370e-13 0.0000000000000000e+00  -1.2344309248125419e-10 -4.9567982210113607e-10 0.0000000000000000e+00  -2.5672876616957670e-10 -5.8453626795268224e-10 0.0000000000000000e+00  -3.7347490668215469e-10 -5.4531921325220061e-10 0.0000000000000000e+00  -4.6474434564320221e-10 -4.6722435651927149e-10 0.0000000000000000e+00  -5.3065807361247774e-10 -3.7961682215566331e-10 0.0000000000000000e+00  -5.7521204807349331e-10 -2.9374864343831284e-10 0.0000000000000000e+00  -6.0353629919945556e-10 -2.1348325694332172e-10 0.0000000000000000e+00  -6.2025077169291696e-10 -1.3925669300230436e-10 0.0000000000000000e+00  -6.2868018021850846e-10 -6.9812975777677466e-11 0.0000000000000000e+00  -6.3080085569740561e-10 -3.1143539723781152e-12 0.0000000000000000e+00  -6.2735436084171800e-10 6.3156867396079486e-11 0.0000000000000000e+00  -6.1793186511250162e-10 1.3129232359471902e-10 0.0000000000000000e+00  -6.0097230153519288e-10 2.0327318091745596e-10 0.0000000000000000e+00  -5.7369585372543745e-10 2.8035993676917759e-10 0.0000000000000000e+00  -5.3209845979263918e-10 3.6241685277577909e-10 0.0000000000000000e+00  -4.7129904928279804e-10 4.4680748167846576e-10 0.0000000000000000e+00  -3.8671409886072550e-10 5.2610148062930407e-10 0.0000000000000000e+00  -2.7634352369364388e-10 5.7890036825405016e-10 0.0000000000000000e+00  -1.4329305472504753e-10 5.2022978640142712e-10 0.0000000000000000e+00  7.2287844565324089e-14 -4.4356178809041006e-13 0.0000000000000000e+00  4.2878652117565202e-14 2.9253686374956016e-13 0.0000000000000000e+00  -1.0025454548906597e-10 -3.9776363966915238e-10 0.0000000000000000e+00  -2.0926589133824685e-10 -4.7285628232521900e-10 0.0000000000000000e+00  -3.0815908127265505e-10 -4.4759733796703860e-10 0.0000000000000000e+00  -3.9014499202639476e-10 -3.9140865349923918e-10 0.0000000000000000e+00  -4.5376240746309106e-10 -3.2493027692495389e-10 0.0000000000000000e+00  -5.0043675952768258e-10 -2.5643254728525945e-10 0.0000000000000000e+00  -5.3277589402675171e-10 -1.8949297676257028e-10 0.0000000000000000e+00  -5.5352545101287433e-10 -1.2531361911895628e-10 0.0000000000000000e+00  -5.6489576837967432e-10 -6.3699581388808008e-11 0.0000000000000000e+00  -5.6830954048644247e-10 -3.6917445132186188e-12 0.0000000000000000e+00  -5.6433583992793449e-10 5.6005667262730019e-11 0.0000000000000000e+00  -5.5269347233541504e-10 1.1669520902566779e-10 0.0000000000000000e+00  -5.3227205022449692e-10 1.7937685350893470e-10 0.0000000000000000e+00  -5.0118956700753543e-10 2.4438955931473192e-10 0.0000000000000000e+00  -4.5697204657849655e-10 3.1095622843476504e-10 0.0000000000000000e+00  -3.9700317636049193e-10 3.7655644066472638e-10 0.0000000000000000e+00  -3.1938841167929164e-10 4.3546855119466868e-10 0.0000000000000000e+00  -2.2417852179630138e-10 4.7170086771027750e-10 0.0000000000000000e+00  -1.1453367591791971e-10 4.1923379694334293e-10 0.0000000000000000e+00  5.6693095480977197e-14 -3.5487164454531192e-13 0.0000000000000000e+00  3.6457928822686539e-14 2.3238014982547625e-13 0.0000000000000000e+00  -8.4092765439153926e-11 -3.1702644048731805e-10 0.0000000000000000e+00  -1.7576939249943231e-10 -3.7933481845723696e-10 0.0000000000000000e+00  -2.6083786560447340e-10 -3.6281034371209881e-10 0.0000000000000000e+00  -3.3403907410162517e-10 -3.2165122190147490e-10 0.0000000000000000e+00  -3.9357228418039503e-10 -2.7111916352223459e-10 0.0000000000000000e+00  -4.3954027494973187e-10 -2.1711144998036344e-10 0.0000000000000000e+00  -4.7306535963527374e-10 -1.6252385335983829e-10 0.0000000000000000e+00  -4.9560652025964519e-10 -1.0868602930092282e-10 0.0000000000000000e+00  -5.0848688251810645e-10 -5.5926569298591494e-11 0.0000000000000000e+00  -5.1262247297882191e-10 -3.9562415028324685e-12 0.0000000000000000e+00  -5.0840210203886752e-10 4.7814245856400802e-11 0.0000000000000000e+00  -4.9565498218642716e-10 9.9995523367688630e-11 0.0000000000000000e+00  -4.7367913954651907e-10 1.5295445631850125e-10 0.0000000000000000e+00  -4.4133988007027931e-10 2.0654193656708951e-10 0.0000000000000000e+00  -3.9727957636967680e-10 2.5980520320758863e-10 0.0000000000000000e+00  -3.4029317631478559e-10 3.1063223468493835e-10 0.0000000000000000e+00  -2.6989004529880946e-10 3.5476441460329813e-10 0.0000000000000000e+00  -1.8696206793296559e-10 3.8028116772471606e-10 0.0000000000000000e+00  -9.4425427018727260e-11 3.3579418808891059e-10 0.0000000000000000e+00  4.5920632079136735e-14 -2.8389979705446655e-13 0.0000000000000000e+00  3.1866893466551624e-14 1.8089130620814215e-13 0.0000000000000000e+00  -7.2589645449832075e-11 -2.4850344856513480e-10 0.0000000000000000e+00  -1.5170199638854583e-10 -2.9913707043241243e-10 0.0000000000000000e+00  -2.2620277136599460e-10 -2.8833564866250279e-10 0.0000000000000000e+00  -2.9190951126019174e-10 -2.5812200198177198e-10 0.0000000000000000e+00  -3.4703007228752429e-10 -2.1995131294259201e-10 0.0000000000000000e+00  -3.9104716798664396e-10 -1.7805936645819148e-10 0.0000000000000000e+00  -4.2422439741941524e-10 -1.3463888443569693e-10 0.0000000000000000e+00  -4.4719775183404225e-10 -9.0884337833759997e-11 0.0000000000000000e+00  -4.6065491544133997e-10 -4.7319032653685813e-11 0.0000000000000000e+00  -4.6511789729691427e-10 -4.0195576906596383e-12 0.0000000000000000e+00  -4.6082469655278535e-10 3.9169682172058902e-11 0.0000000000000000e+00  -4.4768928254977734e-10 8.2428635115331402e-11 0.0000000000000000e+00  -4.2532815119997122e-10 1.2576095856755494e-10 0.0000000000000000e+00  -3.9315610448408371e-10 1.6880326934428066e-10 0.0000000000000000e+00  -3.5056474481047325e-10 2.1064967399841535e-10 0.0000000000000000e+00  -2.9719402354520781e-10 2.4964894572069937e-10 0.0000000000000000e+00  -2.3328251692246342e-10 2.8271405416726163e-10 0.0000000000000000e+00  -1.6004586690136014e-10 3.0105298617687579e-10 0.0000000000000000e+00  -8.0102792464607701e-11 2.6504975966122595e-10 0.0000000000000000e+00  3.8631720541113586e-14 -2.2469849257974972e-13 0.0000000000000000e+00  2.8590082488892733e-14 1.3561795731054126e-13 0.0000000000000000e+00  -6.4398265315304957e-11 -1.8874801679398768e-10 0.0000000000000000e+00  -1.3440217401961540e-10 -2.2876500966079885e-10 0.0000000000000000e+00  -2.0094889952533543e-10 -2.2192487684464751e-10 0.0000000000000000e+00  -2.6061234865893815e-10 -2.0011939765260687e-10 0.0000000000000000e+00  -3.1170668709960336e-10 -1.7190290957816633e-10 0.0000000000000000e+00  -3.5343201066482026e-10 -1.4032014474540532e-10 0.0000000000000000e+00  -3.8557308148101215e-10 -1.0697127590564771e-10 0.0000000000000000e+00  -4.0825880007848313e-10 -7.2822729978296693e-11 0.0000000000000000e+00  -4.2175344560576738e-10 -3.8410846024368085e-11 0.0000000000000000e+00  -4.2629990035046033e-10 -3.9716512773635501e-12 0.0000000000000000e+00  -4.2202412528617293e-10 3.0423107922173168e-11 0.0000000000000000e+00  -4.0889971986023289e-10 6.4723310129730892e-11 0.0000000000000000e+00  -3.8676923224699739e-10 9.8760792435666511e-11 0.0000000000000000e+00  -3.5542166047516651e-10 1.3212319909660751e-10 0.0000000000000000e+00  -3.1472624153718350e-10 1.6405024021324727e-10 0.0000000000000000e+00  -2.6481644712756091e-10 1.9331937539351457e-10 0.0000000000000000e+00  -2.0630553755447750e-10 2.1776869695531124e-10 0.0000000000000000e+00  -1.4051276286875597e-10 2.3109705147359460e-10 0.0000000000000000e+00  -6.9806753303664564e-11 2.0355686442881264e-10 0.0000000000000000e+00  3.3432990894550710e-14 -1.7391966980903844e-13 0.0000000000000000e+00  2.6346970654957089e-14 9.4744237185776348e-14 0.0000000000000000e+00  -5.8722316265515242e-11 -1.3523834071506635e-10 0.0000000000000000e+00  -1.2226901118154175e-10 -1.6554191352134414e-10 0.0000000000000000e+00  -1.8301534002596559e-10 -1.6163460031292215e-10 0.0000000000000000e+00  -2.3806464007463350e-10 -1.4663875222791654e-10 0.0000000000000000e+00  -2.8585030449562441e-10 -1.2677754088035238e-10 0.0000000000000000e+00  -3.2545076223786872e-10 -1.0419883701027828e-10 0.0000000000000000e+00  -3.5639161540381081e-10 -8.0025063939490990e-11 0.0000000000000000e+00  -3.7850087257593750e-10 -5.4975664960618977e-11 0.0000000000000000e+00  -3.9177576432945547e-10 -2.9505302833356374e-11 0.0000000000000000e+00  -3.9627468768295137e-10 -3.8784602185973597e-12 0.0000000000000000e+00  -3.9204674888637564e-10 2.1748604337119008e-11 0.0000000000000000e+00  -3.7910428541314019e-10 4.7236821315288812e-11 0.0000000000000000e+00  -3.5743902653341605e-10 7.2373882552067162e-11 0.0000000000000000e+00  -3.2708008445092386e-10 9.6795403028665033e-11 0.0000000000000000e+00  -2.8818883713589087e-10 1.1992644240478256e-10 0.0000000000000000e+00  -2.4118043600718712e-10 1.4092234781811498e-10 0.0000000000000000e+00  -1.8685748969113502e-10 1.5836552127143437e-10 0.0000000000000000e+00  -1.2655706069617008e-10 1.6802807292242724e-10 0.0000000000000000e+00  -6.2473804036457007e-11 1.4875536112913069e-10 0.0000000000000000e+00  2.9690384806255128e-14 -1.2919686926511605e-13 0.0000000000000000e+00  2.4972734086883092e-14 5.6820709030032890e-14 0.0000000000000000e+00  -5.5086222954588454e-11 -8.6007895234454278e-11 0.0000000000000000e+00  -1.1433215791636082e-10 -1.0731468919904567e-10 0.0000000000000000e+00  -1.7111906568634869e-10 -1.0575590008919943e-10 0.0000000000000000e+00  -2.2291593212564059e-10 -9.6580548761071017e-11 0.0000000000000000e+00  -2.6825739557923885e-10 -8.4040477910443979e-11 0.0000000000000000e+00  -3.0617683359233064e