<?xml version="1.0"?>
<VTKFile type="UnstructuredGrid"  version="0.1"  >
<UnstructuredGrid>
<Piece  NumberOfPoints="651" NumberOfCells="1200">
<Points>
<DataArray  type="Float64"  NumberOfComponents="3"  format="ascii">0 0 0  50000 0 0  100000 0 0  150000 0 0  200000 0 0  250000 0 0  300000 0 0  350000 0 0  400000 0 0  450000 0 0  500000 0 0  550000 0 0  600000 0 0  650000 0 0  700000 0 0  750000 0 0  800000 0 0  850000 0 0  900000 0 0  950000 0 0  1000000 0 0  0 50000 0  50000 50000 0  100000 50000 0  150000 50000 0  200000 50000 0  250000 50000 0  300000 50000 0  350000 50000 0  400000 50000 0  450000 50000 0  500000 50000 0  550000 50000 0  600000 50000 0  650000 50000 0  700000 50000 0  750000 50000 0  800000 50000 0  850000 50000 0  900000 50000 0  950000 50000 0  1000000 50000 0  0 100000 0  50000 100000 0  100000 100000 0  150000 100000 0  200000 100000 0  250000 100000 0  300000 100000 0  350000 100000 0  400000 100000 0  450000 100000 0  500000 100000 0  550000 100000 0  600000 100000 0  650000 100000 0  700000 100000 0  750000 100000 0  800000 100000 0  850000 100000 0  900000 100000 0  950000 100000 0  1000000 100000 0  0 150000 0  50000 150000 0  100000 150000 0  150000 150000 0  200000 150000 0  250000 150000 0  300000 150000 0  350000 150000 0  400000 150000 0  450000 150000 0  500000 150000 0  550000 150000 0  600000 150000 0  650000 150000 0  700000 150000 0  750000 150000 0  800000 150000 0  850000 150000 0  900000 150000 0  950000 150000 0  1000000 150000 0  0 200000 0  50000 200000 0  100000 200000 0  150000 200000 0  200000 200000 0  250000 200000 0  300000 200000 0  350000 200000 0  400000 200000 0  450000 200000 0  500000 200000 0  550000 200000 0  600000 200000 0  650000 200000 0  700000 200000 0  750000 200000 0  800000 200000 0  850000 200000 0  900000 200000 0  950000 200000 0  1000000 200000 0  0 250000 0  50000 250000 0  100000 250000 0  150000 250000 0  200000 250000 0  250000 250000 0  300000 250000 0  350000 250000 0  400000 250000 0  450000 250000 0  500000 250000 0  550000 250000 0  600000 250000 0  650000 250000 0  700000 250000 0  750000 250000 0  800000 250000 0  850000 250000 0  900000 250000 0  950000 250000 0  1000000 250000 0  0 300000 0  50000 300000 0  100000 300000 0  150000 300000 0  200000 300000 0  250000 300000 0  300000 300000 0  350000 300000 0  400000 300000 0  450000 300000 0  500000 300000 0  550000 300000 0  600000 300000 0  650000 300000 0  700000 300000 0  750000 300000 0  800000 300000 0  850000 300000 0  900000 300000 0  950000 300000 0  1000000 300000 0  0 350000 0  50000 350000 0  100000 350000 0  150000 350000 0  200000 350000 0  250000 350000 0  300000 350000 0  350000 350000 0  400000 350000 0  450000 350000 0  500000 350000 0  550000 350000 0  600000 350000 0  650000 350000 0  700000 350000 0  750000 350000 0  800000 350000 0  850000 350000 0  900000 350000 0  950000 350000 0  1000000 350000 0  0 400000 0  50000 400000 0  100000 400000 0  150000 400000 0  200000 400000 0  250000 400000 0  300000 400000 0  350000 400000 0  400000 400000 0  450000 400000 0  500000 400000 0  550000 400000 0  600000 400000 0  650000 400000 0  700000 400000 0  750000 400000 0  800000 400000 0  850000 400000 0  900000 400000 0  950000 400000 0  1000000 400000 0  0 450000 0  50000 450000 0  100000 450000 0  150000 450000 0  200000 450000 0  250000 450000 0  300000 450000 0  350000 450000 0  400000 450000 0  450000 450000 0  500000 450000 0  550000 450000 0  600000 450000 0  650000 450000 0  700000 450000 0  750000 450000 0  800000 450000 0  850000 450000 0  900000 450000 0  950000 450000 0  1000000 450000 0  0 500000 0  50000 500000 0  100000 500000 0  150000 500000 0  200000 500000 0  250000 500000 0  300000 500000 0  350000 500000 0  400000 500000 0  450000 500000 0  500000 500000 0  550000 500000 0  600000 500000 0  650000 500000 0  700000 500000 0  750000 500000 0  800000 500000 0  850000 500000 0  900000 500000 0  950000 500000 0  1000000 500000 0  0 550000 0  50000 550000 0  100000 550000 0  150000 550000 0  200000 550000 0  250000 550000 0  300000 550000 0  350000 550000 0  400000 550000 0  450000 550000 0  500000 550000 0  550000 550000 0  600000 550000 0  650000 550000 0  700000 550000 0  750000 550000 0  800000 550000 0  850000 550000 0  900000 550000 0  950000 550000 0  1000000 550000 0  0 600000 0  50000 600000 0  100000 600000 0  150000 600000 0  200000 600000 0  250000 600000 0  300000 600000 0  350000 600000 0  400000 600000 0  450000 600000 0  500000 600000 0  550000 600000 0  600000 600000 0  650000 600000 0  700000 600000 0  750000 600000 0  800000 600000 0  850000 600000 0  900000 600000 0  950000 600000 0  1000000 600000 0  0 650000 0  50000 650000 0  100000 650000 0  150000 650000 0  200000 650000 0  250000 650000 0  300000 650000 0  350000 650000 0  400000 650000 0  450000 650000 0  500000 650000 0  550000 650000 0  600000 650000 0  650000 650000 0  700000 650000 0  750000 650000 0  800000 650000 0  850000 650000 0  900000 650000 0  950000 650000 0  1000000 650000 0  0 700000 0  50000 700000 0  100000 700000 0  150000 700000 0  200000 700000 0  250000 700000 0  300000 700000 0  350000 700000 0  400000 700000 0  450000 700000 0  500000 700000 0  550000 700000 0  600000 700000 0  650000 700000 0  700000 700000 0  750000 700000 0  800000 700000 0  850000 700000 0  900000 700000 0  950000 700000 0  1000000 700000 0  0 750000 0  50000 750000 0  100000 750000 0  150000 750000 0  200000 750000 0  250000 750000 0  300000 750000 0  350000 750000 0  400000 750000 0  450000 750000 0  500000 750000 0  550000 750000 0  600000 750000 0  650000 750000 0  700000 750000 0  750000 750000 0  800000 750000 0  850000 750000 0  900000 750000 0  950000 750000 0  1000000 750000 0  0 800000 0  50000 800000 0  100000 800000 0  150000 800000 0  200000 800000 0  250000 800000 0  300000 800000 0  350000 800000 0  400000 800000 0  450000 800000 0  500000 800000 0  550000 800000 0  600000 800000 0  650000 800000 0  700000 800000 0  750000 800000 0  800000 800000 0  850000 800000 0  900000 800000 0  950000 800000 0  1000000 800000 0  0 850000 0  50000 850000 0  100000 850000 0  150000 850000 0  200000 850000 0  250000 850000 0  300000 850000 0  350000 850000 0  400000 850000 0  450000 850000 0  500000 850000 0  550000 850000 0  600000 850000 0  650000 850000 0  700000 850000 0  750000 850000 0  800000 850000 0  850000 850000 0  900000 850000 0  950000 850000 0  1000000 850000 0  0 900000 0  50000 900000 0  100000 900000 0  150000 900000 0  200000 900000 0  250000 900000 0  300000 900000 0  350000 900000 0  400000 900000 0  450000 900000 0  500000 900000 0  550000 900000 0  600000 900000 0  650000 900000 0  700000 900000 0  750000 900000 0  800000 900000 0  850000 900000 0  900000 900000 0  950000 900000 0  1000000 900000 0  0 950000 0  50000 950000 0  100000 950000 0  150000 950000 0  200000 950000 0  250000 950000 0  300000 950000 0  350000 950000 0  400000 950000 0  450000 950000 0  500000 950000 0  550000 950000 0  600000 950000 0  650000 950000 0  700000 950000 0  750000 950000 0  800000 950000 0  850000 950000 0  900000 950000 0  950000 950000 0  1000000 950000 0  0 1000000 0  50000 1000000 0  100000 1000000 0  150000 1000000 0  200000 1000000 0  250000 1000000 0  300000 1000000 0  350000 1000000 0  400000 1000000 0  450000 1000000 0  500000 1000000 0  550000 1000000 0  600000 1000000 0  650000 1000000 0  700000 1000000 0  750000 1000000 0  800000 1000000 0  850000 1000000 0  900000 1000000 0  950000 1000000 0  1000000 1000000 0  0 1050000 0  50000 1050000 0  100000 1050000 0  150000 1050000 0  200000 1050000 0  250000 1050000 0  300000 1050000 0  350000 1050000 0  400000 1050000 0  450000 1050000 0  500000 1050000 0  550000 1050000 0  600000 1050000 0  650000 1050000 0  700000 1050000 0  750000 1050000 0  800000 1050000 0  850000 1050000 0  900000 1050000 0  950000 1050000 0  1000000 1050000 0  0 1100000 0  50000 1100000 0  100000 1100000 0  150000 1100000 0  200000 1100000 0  250000 1100000 0  300000 1100000 0  350000 1100000 0  400000 1100000 0  450000 1100000 0  500000 1100000 0  550000 1100000 0  600000 1100000 0  650000 1100000 0  700000 1100000 0  750000 1100000 0  800000 1100000 0  850000 1100000 0  900000 1100000 0  950000 1100000 0  1000000 1100000 0  0 1150000 0  50000 1150000 0  100000 1150000 0  150000 1150000 0  200000 1150000 0  250000 1150000 0  300000 1150000 0  350000 1150000 0  400000 1150000 0  450000 1150000 0  500000 1150000 0  550000 1150000 0  600000 1150000 0  650000 1150000 0  700000 1150000 0  750000 1150000 0  800000 1150000 0  850000 1150000 0  900000 1150000 0  950000 1150000 0  1000000 1150000 0  0 1200000 0  50000 1200000 0  100000 1200000 0  150000 1200000 0  200000 1200000 0  250000 1200000 0  300000 1200000 0  350000 1200000 0  400000 1200000 0  450000 1200000 0  500000 1200000 0  550000 1200000 0  600000 1200000 0  650000 1200000 0  700000 1200000 0  750000 1200000 0  800000 1200000 0  850000 1200000 0  900000 1200000 0  950000 1200000 0  1000000 1200000 0  0 1250000 0  50000 1250000 0  100000 1250000 0  150000 1250000 0  200000 1250000 0  250000 1250000 0  300000 1250000 0  350000 1250000 0  400000 1250000 0  450000 1250000 0  500000 1250000 0  550000 1250000 0  600000 1250000 0  650000 1250000 0  700000 1250000 0  750000 1250000 0  800000 1250000 0  850000 1250000 0  900000 1250000 0  950000 1250000 0  1000000 1250000 0  0 1300000 0  50000 1300000 0  100000 1300000 0  150000 1300000 0  200000 1300000 0  250000 1300000 0  300000 1300000 0  350000 1300000 0  400000 1300000 0  450000 1300000 0  500000 1300000 0  550000 1300000 0  600000 1300000 0  650000 1300000 0  700000 1300000 0  750000 1300000 0  800000 1300000 0  850000 1300000 0  900000 1300000 0  950000 1300000 0  1000000 1300000 0  0 1350000 0  50000 1350000 0  100000 1350000 0  150000 1350000 0  200000 1350000 0  250000 1350000 0  300000 1350000 0  350000 1350000 0  400000 1350000 0  450000 1350000 0  500000 1350000 0  550000 1350000 0  600000 1350000 0  650000 1350000 0  700000 135
[...]
<PointData  Vectors="f_5995"> 
<DataArray  type="Float64"  Name="f_5995"  NumberOfComponents="3" format="ascii">1.8142221382122590e-12 3.2532954730491027e-12 0.0000000000000000e+00  8.0002131135610044e-08 2.2979602703424531e-12 0.0000000000000000e+00  8.0001617606423317e-08 8.9938381135281099e-13 0.0000000000000000e+00  8.0001075032779153e-08 2.3914064073466726e-13 0.0000000000000000e+00  8.0000882460771760e-08 8.8503888876247908e-14 0.0000000000000000e+00  8.0000767126573131e-08 5.9260516782322548e-14 0.0000000000000000e+00  8.0000686882986732e-08 4.2639725777374624e-14 0.0000000000000000e+00  8.0000634190920021e-08 2.8447480409675417e-14 0.0000000000000000e+00  8.0000602258497331e-08 1.6968747425397964e-14 0.0000000000000000e+00  8.0000586488956330e-08 7.2521296554130963e-15 0.0000000000000000e+00  8.0000584696972037e-08 -1.9355484718457909e-15 0.0000000000000000e+00  8.0000596583504301e-08 -1.1758263425128259e-14 0.0000000000000000e+00  8.0000623584640945e-08 -2.3581495887312890e-14 0.0000000000000000e+00  8.0000669352365143e-08 -3.9366434456995407e-14 0.0000000000000000e+00  8.0000741776444520e-08 -6.0545707197977255e-14 0.0000000000000000e+00  8.0000856205211423e-08 -7.8685199421749769e-14 0.0000000000000000e+00  8.0001026034533630e-08 -7.0223146889883573e-14 0.0000000000000000e+00  8.0001297065739413e-08 -2.0607030931681854e-13 0.0000000000000000e+00  8.0002272961352098e-08 -1.5128048577088723e-12 0.0000000000000000e+00  8.0001766314772414e-08 -1.9489104430334739e-12 0.0000000000000000e+00  1.1170433981693136e-12 -1.8971593510377332e-12 0.0000000000000000e+00  1.2942234058086507e-12 2.5752692197824393e-12 0.0000000000000000e+00  1.1748641459958034e-08 -1.1432671943673869e-09 0.0000000000000000e+00  1.3643686306941275e-08 -8.9003445414543947e-10 0.0000000000000000e+00  1.5269408272015089e-08 -3.8530537426266776e-10 0.0000000000000000e+00  1.5834324593411462e-08 -2.2128769003822067e-10 0.0000000000000000e+00  1.6045509134636746e-08 -1.2883417249717920e-10 0.0000000000000000e+00  1.6163746991672389e-08 -6.9064296908473484e-11 0.0000000000000000e+00  1.6240223309200765e-08 -2.9409126234598087e-11 0.0000000000000000e+00  1.6288109483894900e-08 -8.5272210408650045e-13 0.0000000000000000e+00  1.6314085085867231e-08 2.2112130854227642e-11 0.0000000000000000e+00  1.6321693299205194e-08 4.2973779812664658e-11 0.0000000000000000e+00  1.6312076775394850e-08 6.4477531677804650e-11 0.0000000000000000e+00  1.6284297310163068e-08 8.9500997716539042e-11 0.0000000000000000e+00  1.6235182045210673e-08 1.2195426943690970e-10 0.0000000000000000e+00  1.6158830387227291e-08 1.6804133655597496e-10 0.0000000000000000e+00  1.6047156460654393e-08 2.3751764936463921e-10 0.0000000000000000e+00  1.5892793719413579e-08 3.4595959672037450e-10 0.0000000000000000e+00  1.5645240546666186e-08 5.6621021591427454e-10 0.0000000000000000e+00  1.4795112327616793e-08 1.4055571155603592e-09 0.0000000000000000e+00  1.1407180517886408e-08 3.9597474183207950e-09 0.0000000000000000e+00  1.5297507221490007e-12 -2.1753359381683348e-12 0.0000000000000000e+00  4.3604555411131100e-13 1.3044848064810252e-12 0.0000000000000000e+00  2.8148290752131533e-10 -2.6168505819998384e-09 0.0000000000000000e+00  1.8040052557287558e-09 -1.2931268763752381e-09 0.0000000000000000e+00  1.5287837271765936e-09 -8.1044519631398026e-10 0.0000000000000000e+00  1.7610361775090724e-09 -5.1298175850957801e-10 0.0000000000000000e+00  1.9707433236758009e-09 -3.2479882318922052e-10 0.0000000000000000e+00  2.0993839503270968e-09 -2.0672033141891986e-10 0.0000000000000000e+00  2.1808738784179510e-09 -1.2772481221838593e-10 0.0000000000000000e+00  2.2327757690835089e-09 -7.0207221343976196e-11 0.0000000000000000e+00  2.2622643514412019e-09 -2.3993478437061024e-11 0.0000000000000000e+00  2.2727367265403930e-09 1.7489048525201162e-11 0.0000000000000000e+00  2.2655389803550375e-09 5.9367281458350857e-11 0.0000000000000000e+00  2.2404018180874683e-09 1.0676165190752250e-10 0.0000000000000000e+00  2.1956103761322557e-09 1.6615557862550030e-10 0.0000000000000000e+00  2.1282699191531327e-09 2.4730619994242221e-10 0.0000000000000000e+00  2.0350714818945439e-09 3.6701275723972569e-10 0.0000000000000000e+00  1.9115146779612458e-09 5.6036168985228322e-10 0.0000000000000000e+00  1.7374261807571947e-09 9.1408007792241746e-10 0.0000000000000000e+00  1.4738312367452891e-09 1.5632498276675163e-09 0.0000000000000000e+00  1.3468421052868102e-09 2.0559514198289711e-09 0.0000000000000000e+00  1.1864376250201290e-12 -2.2805941270861394e-12 0.0000000000000000e+00  1.6092302647269278e-13 8.9292505218148619e-13 0.0000000000000000e+00  -3.7535887093701274e-10 -1.5100670362897715e-09 0.0000000000000000e+00  -4.6062130181368015e-10 -1.4179613380231005e-09 0.0000000000000000e+00  -5.5904812279360663e-10 -9.9073570972381034e-10 0.0000000000000000e+00  -5.7294252048690420e-10 -6.5744490042028589e-10 0.0000000000000000e+00  -5.1870771931678297e-10 -4.4298257369092107e-10 0.0000000000000000e+00  -4.5083546664869295e-10 -2.9696932421200118e-10 0.0000000000000000e+00  -3.9618891487302171e-10 -1.9342340566935218e-10 0.0000000000000000e+00  -3.5817214505984042e-10 -1.1527348095730836e-10 0.0000000000000000e+00  -3.3529891400441461e-10 -5.1261503468165015e-11 0.0000000000000000e+00  -3.2619803493124243e-10 6.4368429454875560e-12 0.0000000000000000e+00  -3.3009005967449807e-10 6.4099453368446761e-11 0.0000000000000000e+00  -3.4665555343360770e-10 1.2785893919466096e-10 0.0000000000000000e+00  -3.7571520477631378e-10 2.0500729441630809e-10 0.0000000000000000e+00  -4.1650486941954890e-10 3.0564899372158124e-10 0.0000000000000000e+00  -4.6615851863354343e-10 4.4529694649297052e-10 0.0000000000000000e+00  -5.1642334891553436e-10 6.4825789629077050e-10 0.0000000000000000e+00  -5.4205247091719776e-10 9.4131509677190977e-10 0.0000000000000000e+00  -4.5619278760711360e-10 1.2803680157100462e-09 0.0000000000000000e+00  -8.8923227440770760e-11 1.2986677791980904e-09 0.0000000000000000e+00  1.1360885433064643e-13 -1.2062922716009230e-12 0.0000000000000000e+00  9.8615086916491470e-14 6.9504987877825789e-13 0.0000000000000000e+00  -2.9410859176228974e-10 -1.0232489167454962e-09 0.0000000000000000e+00  -5.6859782920799259e-10 -1.1552662118243766e-09 0.0000000000000000e+00  -7.1272420613331665e-10 -9.1814069608891047e-10 0.0000000000000000e+00  -7.9961997623459516e-10 -6.7965021196529845e-10 0.0000000000000000e+00  -8.1435255424323602e-10 -4.8536750006937531e-10 0.0000000000000000e+00  -8.0145059352659686e-10 -3.3947384415173810e-10 0.0000000000000000e+00  -7.8067722548403723e-10 -2.2854073027489142e-10 0.0000000000000000e+00  -7.6175988408048108e-10 -1.4044468181577846e-10 0.0000000000000000e+00  -7.4868838547315214e-10 -6.5999614676355991e-11 0.0000000000000000e+00  -7.4266629964013460e-10 1.9692035153379663e-12 0.0000000000000000e+00  -7.4376462037548254e-10 6.9572008528860931e-11 0.0000000000000000e+00  -7.5138734957086160e-10 1.4273333745648002e-10 0.0000000000000000e+00  -7.6405586790827970e-10 2.2801402449265553e-10 0.0000000000000000e+00  -7.7858256355663804e-10 3.3338238194681796e-10 0.0000000000000000e+00  -7.8828205793429051e-10 4.6858504002199800e-10 0.0000000000000000e+00  -7.7917151326905161e-10 6.4312391896252147e-10 0.0000000000000000e+00  -7.2219646447654544e-10 8.5463738972017753e-10 0.0000000000000000e+00  -5.6612611588978914e-10 1.0503502658966709e-09 0.0000000000000000e+00  -2.7654126226724254e-10 1.0172790697313839e-09 0.0000000000000000e+00  5.4660011518797734e-14 -8.9141468783326777e-13 0.0000000000000000e+00  7.8176668119668390e-14 5.5289000221176017e-13 0.0000000000000000e+00  -2.1275073059718990e-10 -7.8861496965071465e-10 0.0000000000000000e+00  -4.3363091641169282e-10 -9.0911594182251584e-10 0.0000000000000000e+00  -5.9308977136623196e-10 -7.9263975666154582e-10 0.0000000000000000e+00  -6.9239054491899035e-10 -6.2707501412693154e-10 0.0000000000000000e+00  -7.4360975289843446e-10 -4.7392505586384605e-10 0.0000000000000000e+00  -7.6339307753243447e-10 -3.4546097398689986e-10 0.0000000000000000e+00  -7.6739357560363565e-10 -2.3952964730572059e-10 0.0000000000000000e+00  -7.6506688112639519e-10 -1.5062695701941204e-10 0.0000000000000000e+00  -7.6139315658595193e-10 -7.2775675059897386e-11 0.0000000000000000e+00  -7.5871367079452525e-10 -4.8715927277676076e-13 0.0000000000000000e+00  -7.5768924841339745e-10 7.1286859551283563e-11 0.0000000000000000e+00  -7.5769725156351315e-10 1.4744683005281635e-10 0.0000000000000000e+00  -7.5672661001909787e-10 2.3301509415474689e-10 0.0000000000000000e+00  -7.5076807254273197e-10 3.3316026750671517e-10 0.0000000000000000e+00  -7.3261683888219898e-10 4.5247805509919653e-10 0.0000000000000000e+00  -6.9007744915065568e-10 5.9231828296154086e-10 0.0000000000000000e+00  -6.0468688757799584e-10 7.4359122848062339e-10 0.0000000000000000e+00  -4.5625600178866837e-10 8.6742357180668340e-10 0.0000000000000000e+00  -2.4185644817213178e-10 8.1624966116928523e-10 0.0000000000000000e+00  9.5195926535953439e-14 -6.8784337580816915e-13 0.0000000000000000e+00  6.2649690079636287e-14 4.4201374301487074e-13 0.0000000000000000e+00  -1.5895054507950418e-10 -6.2730434397089903e-10 0.0000000000000000e+00  -3.2892742034135832e-10 -7.2948960733253366e-10 0.0000000000000000e+00  -4.6889942892368287e-10 -6.6412095626567546e-10 0.0000000000000000e+00  -5.6822986159270195e-10 -5.5100707845324894e-10 0.0000000000000000e+00  -6.3233977742600353e-10 -4.3437582253467237e-10 0.0000000000000000e+00  -6.6952687784935938e-10 -3.2741245432179300e-10 0.0000000000000000e+00  -6.8934745903898607e-10 -2.3298019115317753e-10 0.0000000000000000e+00  -6.9881106323690141e-10 -1.4945019312979990e-10 0.0000000000000000e+00  -7.0240297051711720e-10 -7.3681535613185264e-11 0.0000000000000000e+00  -7.0253459671175541e-10 -2.0751525872951528e-12 0.0000000000000000e+00  -7.0002467519876661e-10 6.9020255073117968e-11 0.0000000000000000e+00  -6.9433127382354094e-10 1.4317505299628024e-10 0.0000000000000000e+00  -6.8350294667086043e-10 2.2376484986359785e-10 0.0000000000000000e+00  -6.6387526146461092e-10 3.1363686269882428e-10 0.0000000000000000e+00  -6.2961008247752371e-10 4.1424396308468236e-10 0.0000000000000000e+00  -5.7244390051738963e-10 5.2377986192038491e-10 0.0000000000000000e+00  -4.8269864810116687e-10 6.3325114047981642e-10 0.0000000000000000e+00  -3.5331689503280267e-10 7.1405397705673119e-10 0.0000000000000000e+00  -1.8649872384412437e-10 6.5511871210680343e-10 0.0000000000000000e+00  8.6691837012278612e-14 -5.3800294956970918e-13 0.0000000000000000e+00  5.0499122834384130e-14 3.5486452865487755e-13 0.0000000000000000e+00  -1.2418264655216267e-10 -5.0296189027964664e-10 0.0000000000000000e+00  -2.5892790815661896e-10 -5.9072977362865471e-10 0.0000000000000000e+00  -3.7674144222167394e-10 -5.5009611888954506e-10 0.0000000000000000e+00  -4.6877821985537392e-10 -4.7103423216224909e-10 0.0000000000000000e+00  -5.3521430322859934e-10 -3.8264937760200790e-10 0.0000000000000000e+00  -5.8012351826289675e-10 -2.9607856677960246e-10 0.0000000000000000e+00  -6.0868723312631988e-10 -2.1516722992416854e-10 0.0000000000000000e+00  -6.2555686140179282e-10 -1.4034129428008875e-10 0.0000000000000000e+00  -6.3407705389663790e-10 -7.0330406671829676e-11 0.0000000000000000e+00  -6.3623485811783388e-10 -3.0789539726736149e-12 0.0000000000000000e+00  -6.3277267106078364e-10 6.3751129367429491e-11 0.0000000000000000e+00  -6.2327286625195213e-10 1.3247284811365384e-10 0.0000000000000000e+00  -6.0615538417934018e-10 2.0508851515095314e-10 0.0000000000000000e+00  -5.7861189731286285e-10 2.8287799978306081e-10 0.0000000000000000e+00  -5.3660461191831213e-10 3.6572077326851379e-10 0.0000000000000000e+00  -4.7522261244288198e-10 4.5098977566083768e-10 0.0000000000000000e+00  -3.8986921003560068e-10 5.3127352134660127e-10 0.0000000000000000e+00  -2.7857368383922161e-10 5.8526146200186724e-10 0.0000000000000000e+00  -1.4454037743449314e-10 5.2759044949771016e-10 0.0000000000000000e+00  6.8359801714676757e-14 -4.2868569622195580e-13 0.0000000000000000e+00  4.1745122933822616e-14 2.8454594501721623e-13 0.0000000000000000e+00  -1.0085404886992617e-10 -4.0356499132287082e-10 0.0000000000000000e+00  -2.1103046973315476e-10 -4.7788003346253062e-10 0.0000000000000000e+00  -3.1081895777962776e-10 -4.5161016943587573e-10 0.0000000000000000e+00  -3.9348746942610638e-10 -3.9466345587880226e-10 0.0000000000000000e+00  -4.5762049266719108e-10 -3.2755872912116938e-10 0.0000000000000000e+00  -5.0467175397582688e-10 -2.5847889399198970e-10 0.0000000000000000e+00  -5.3727965526546536e-10 -1.9098693071585278e-10 0.0000000000000000e+00  -5.5820881125349084e-10 -1.2627956709334846e-10 0.0000000000000000e+00  -5.6968393916019280e-10 -6.4155359393603688e-11 0.0000000000000000e+00  -5.7313506380468233e-10 -3.6447693052695969e-12 0.0000000000000000e+00  -5.6913186175247745e-10 5.6560664255798921e-11 0.0000000000000000e+00  -5.5738685290141117e-10 1.1777667210891950e-10 0.0000000000000000e+00  -5.3677684450402746e-10 1.8101490083256400e-10 0.0000000000000000e+00  -5.0540198618329147e-10 2.4662186848409126e-10 0.0000000000000000e+00  -4.6076867282834757e-10 3.1382073195239192e-10 0.0000000000000000e+00  -4.0024461313940035e-10 3.8008435020292290e-10 0.0000000000000000e+00  -3.2193294391844225e-10 4.3970133128370984e-10 0.0000000000000000e+00  -2.2592294393495041e-10 4.7677816774425727e-10 0.0000000000000000e+00  -1.1547867273451505e-10 4.2505167333710864e-10 0.0000000000000000e+00  5.4272305456123137e-14 -3.4404604271308303e-13 0.0000000000000000e+00  3.5502041143141681e-14 2.2603146732812271e-13 0.0000000000000000e+00  -8.4597809401999508e-11 -3.2163838823438655e-10 0.0000000000000000e+00  -1.7723532433713888e-10 -3.8336846460896838e-10 0.0000000000000000e+00  -2.6307157639208256e-10 -3.6609462522593063e-10 0.0000000000000000e+00  -3.3688797732627754e-10 -3.2436079397051586e-10 0.0000000000000000e+00  -3.9690963212051931e-10 -2.7333120476411696e-10 0.0000000000000000e+00  -4.4325384996566263e-10 -2.1885043160504286e-10 0.0000000000000000e+00  -4.7705639136753237e-10 -1.6380165049541548e-10 0.0000000000000000e+00  -4.9978774290536876e-10 -1.0951314781836016e-10 0.0000000000000000e+00  -5.1277940780948266e-10 -5.6311082420982511e-11 0.0000000000000000e+00  -5.1695206832494424e-10 -3.9010463121104182e-12 0.0000000000000000e+00  -5.1269484638143783e-10 4.8313169399861887e-11 0.0000000000000000e+00  -4.9983286472475944e-10 1.0094916892304144e-10 0.0000000000000000e+00  -4.7765623234601289e-10 1.5437879393415989e-10 0.0000000000000000e+00  -4.4501988715386172e-10 2.0845349398598167e-10 0.0000000000000000e+00  -4.0055580514321416e-10 2.6221450831483979e-10 0.0000000000000000e+00  -3.4305239231777359e-10 3.1354000779042210e-10 0.0000000000000000e+00  -2.7202432243781611e-10 3.5818244345482939e-10 0.0000000000000000e+00  -1.8840200187438138e-10 3.8431581280337162e-10 0.0000000000000000e+00  -9.5188471413403195e-11 3.4038930242997564e-10 0.0000000000000000e+00  4.4462283016792091e-14 -2.7545194087640607e-13 0.0000000000000000e+00  3.1014821046750707e-14 1.7594343655237860e-13 0.0000000000000000e+00  -7.3030718495029010e-11 -2.5212073987814259e-10 0.0000000000000000e+00  -1.5295483861711475e-10 -3.0232207384948554e-10 0.0000000000000000e+00  -2.2812532389179954e-10 -2.9095636767893028e-10 0.0000000000000000e+00  -2.9438849730909983e-10 -2.6030967019820383e-10 0.0000000000000000e+00  -3.4996626760634844e-10 -2.2175285606647115e-10 0.0000000000000000e+00  -3.9434702744544944e-10 -1.7948487030521994e-10 0.0000000000000000e+00  -4.2779941615795069e-10 -1.3569021354974704e-10 0.0000000000000000e+00  -4.5096473390440632e-10 -9.1563712694574748e-11 0.0000000000000000e+00  -4.6453490783535985e-10 -4.7628648553618442e-11 0.0000000000000000e+00  -4.6903438826614423e-10 -3.9597521875317047e-12 0.0000000000000000e+00  -4.6470120258569838e-10 3.9601617450113032e-11 0.0000000000000000e+00  -4.5144689150432124e-10 8.3238232034559737e-11 0.0000000000000000e+00  -4.2888355517653248e-10 1.2695466251979055e-10 0.0000000000000000e+00  -3.9642074071979225e-10 1.7038473343003840e-10 0.0000000000000000e+00  -3.5344572517976531e-10 2.1261500200387961e-10 0.0000000000000000e+00  -2.9959787345606405e-10 2.5198553017915240e-10 0.0000000000000000e+00  -2.3512479597029777e-10 2.8542077255683533e-10 0.0000000000000000e+00  -1.6127638756823224e-10 3.0421163279293072e-10 0.0000000000000000e+00  -8.0740231488599026e-11 2.6863379558333525e-10 0.0000000000000000e+00  3.7494148247579834e-14 -2.1812181969833821e-13 0.0000000000000000e+00  2.7817817032960742e-14 1.3191211360416424e-13 0.0000000000000000e+00  -6.4797082960091548e-11 -1.9150790659828349e-10 0.0000000000000000e+00  -1.3550174978170757e-10 -2.3120660618732719e-10 0.0000000000000000e+00  -2.0264298955607493e-10 -2.2394422638924581e-10 0.0000000000000000e+00  -2.6281399437724199e-10 -2.0181585811447100e-10 0.0000000000000000e+00  -3.1433571903564046e-10 -1.7330775375275262e-10 0.0000000000000000e+00  -3.5640844925529538e-10 -1.4143568668509912e-10 0.0000000000000000e+00  -3.8881724040755397e-10 -1.0779454245883522e-10 0.0000000000000000e+00  -4.1169219059935577e-10 -7.3351772949341449e-11 0.0000000000000000e+00  -4.2529897119879128e-10 -3.8644870905944319e-11 0.0000000000000000e+00  -4.2988128972137742e-10 -3.9098327302183405e-12 0.0000000000000000e+00  -4.2556491366778990e-10 3.0782338308505244e-11 0.0000000000000000e+00  -4.1232216248692930e-10 6.5381940224039148e-11 0.0000000000000000e+00  -3.8999359644146469e-10 9.9719672231309914e-11 0.0000000000000000e+00  -3.5836634360664086e-10 1.3337929944819246e-10 0.0000000000000000e+00  -3.1730916702531194e-10 1.6559351443157602e-10 0.0000000000000000e+00  -2.6695840761186022e-10 1.9513292061532863e-10 0.0000000000000000e+00  -2.0793764140365872e-10 2.1984571908808229e-10 0.0000000000000000e+00  -1.4159505253867945e-10 2.3349851197400248e-10 0.0000000000000000e+00  -7.0352869753161871e-11 2.0627614298771597e-10 0.0000000000000000e+00  3.2462968393109587e-14 -1.6889355391082381e-13 0.0000000000000000e+00  2.5632980642813801e-14 9.2164452651266122e-14 0.0000000000000000e+00  -5.9095362241573942e-11 -1.3723796371016529e-10 0.0000000000000000e+00  -1.2326006501363473e-10 -1.6731728541566619e-10 0.0000000000000000e+00  -1.8454466571319940e-10 -1.6310309874143264e-10 0.0000000000000000e+00  -2.4006347128555820e-10 -1.4787379744628725e-10 0.0000000000000000e+00  -2.8825142786445455e-10 -1.2780173450789256e-10 0.0000000000000000e+00  -3.2818389182858553e-10 -1.0501197291201050e-10 0.0000000000000000e+00  -3.5938389633828025e-10 -8.0622905574961888e-11 0.0000000000000000e+00  -3.8167813144340252e-10 -5.5355013474254492e-11 0.0000000000000000e+00  -3.9506332915085353e-10 -2.9664360545864326e-11 0.0000000000000000e+00  -3.9959763932436113e-10 -3.8161660029459226e-12 0.0000000000000000e+00  -3.9532981543850894e-10 2.2032951258590060e-11 0.0000000000000000e+00  -3.8227167438416215e-10 4.7743234267589562e-11 0.0000000000000000e+00  -3.6041452817133576e-10 7.3100537682931395e-11 0.0000000000000000e+00  -3.2978776525572994e-10 9.7736759615903407e-11 0.0000000000000000e+00  -2.9055461550804536e-10 1.2107123351454771e-10 0.0000000000000000e+00  -2.4313494698889976e-10 1.4225400879030096e-10 0.0000000000000000e+00  -1.8834169602884339e-10 1.5987473071427944e-10 0.0000000000000000e+00  -1.2753565056100223e-10 1.6975674751734717e-10 0.0000000000000000e+00  -6.2952371403819809e-11 1.5071140642863723e-10 0.0000000000000000e+00  2.8844285253605495e-14 -1.2548984977142604e-13 0.0000000000000000e+00  2.4294028972471443e-14 5.5288252228189354e-14 0.0000000000000000e+00  -5.5446989447117074e-11 -8.7313858101695754e-11 0.0000000000000000e+00  -1.1525034228025099e-10 -1.0847813128001767e-10 0.0000000000000000e+00  -1.7253559397392937e-10 -1.0671092090859850e-10 0.0000000000000000e+00  -2.2477491338384456e-10 -9.7378246862707632e-11 0.0000000000000000e+00  -2.7050019710608651e-10 -8.4698385165651933e-11 0.0000000000000000e+00  -3.0873966847822806e