<?xml version="1.0"?>
<VTKFile type="UnstructuredGrid"  version="0.1"  >
<UnstructuredGrid>
<Piece  NumberOfPoints="651" NumberOfCells="1200">
<Points>
<DataArray  type="Float64"  NumberOfComponents="3"  format="ascii">0 0 0  50000 0 0  100000 0 0  150000 0 0  200000 0 0  250000 0 0  300000 0 0  350000 0 0  400000 0 0  450000 0 0  500000 0 0  550000 0 0  600000 0 0  650000 0 0  700000 0 0  750000 0 0  800000 0 0  850000 0 0  900000 0 0  950000 0 0  1000000 0 0  0 50000 0  50000 50000 0  100000 50000 0  150000 50000 0  200000 50000 0  250000 50000 0  300000 50000 0  350000 50000 0  400000 50000 0  450000 50000 0  500000 50000 0  550000 50000 0  600000 50000 0  650000 50000 0  700000 50000 0  750000 50000 0  800000 50000 0  850000 50000 0  900000 50000 0  950000 50000 0  1000000 50000 0  0 100000 0  50000 100000 0  100000 100000 0  150000 100000 0  200000 100000 0  250000 100000 0  300000 100000 0  350000 100000 0  400000 100000 0  450000 100000 0  500000 100000 0  550000 100000 0  600000 100000 0  650000 100000 0  700000 100000 0  750000 100000 0  800000 100000 0  850000 100000 0  900000 100000 0  950000 100000 0  1000000 100000 0  0 150000 0  50000 150000 0  100000 150000 0  150000 150000 0  200000 150000 0  250000 150000 0  300000 150000 0  350000 150000 0  400000 150000 0  450000 150000 0  500000 150000 0  550000 150000 0  600000 150000 0  650000 150000 0  700000 150000 0  750000 150000 0  800000 150000 0  850000 150000 0  900000 150000 0  950000 150000 0  1000000 150000 0  0 200000 0  50000 200000 0  100000 200000 0  150000 200000 0  200000 200000 0  250000 200000 0  300000 200000 0  350000 200000 0  400000 200000 0  450000 200000 0  500000 200000 0  550000 200000 0  600000 200000 0  650000 200000 0  700000 200000 0  750000 200000 0  800000 200000 0  850000 200000 0  900000 200000 0  950000 200000 0  1000000 200000 0  0 250000 0  50000 250000 0  100000 250000 0  150000 250000 0  200000 250000 0  250000 250000 0  300000 250000 0  350000 250000 0  400000 250000 0  450000 250000 0  500000 250000 0  550000 250000 0  600000 250000 0  650000 250000 0  700000 250000 0  750000 250000 0  800000 250000 0  850000 250000 0  900000 250000 0  950000 250000 0  1000000 250000 0  0 300000 0  50000 300000 0  100000 300000 0  150000 300000 0  200000 300000 0  250000 300000 0  300000 300000 0  350000 300000 0  400000 300000 0  450000 300000 0  500000 300000 0  550000 300000 0  600000 300000 0  650000 300000 0  700000 300000 0  750000 300000 0  800000 300000 0  850000 300000 0  900000 300000 0  950000 300000 0  1000000 300000 0  0 350000 0  50000 350000 0  100000 350000 0  150000 350000 0  200000 350000 0  250000 350000 0  300000 350000 0  350000 350000 0  400000 350000 0  450000 350000 0  500000 350000 0  550000 350000 0  600000 350000 0  650000 350000 0  700000 350000 0  750000 350000 0  800000 350000 0  850000 350000 0  900000 350000 0  950000 350000 0  1000000 350000 0  0 400000 0  50000 400000 0  100000 400000 0  150000 400000 0  200000 400000 0  250000 400000 0  300000 400000 0  350000 400000 0  400000 400000 0  450000 400000 0  500000 400000 0  550000 400000 0  600000 400000 0  650000 400000 0  700000 400000 0  750000 400000 0  800000 400000 0  850000 400000 0  900000 400000 0  950000 400000 0  1000000 400000 0  0 450000 0  50000 450000 0  100000 450000 0  150000 450000 0  200000 450000 0  250000 450000 0  300000 450000 0  350000 450000 0  400000 450000 0  450000 450000 0  500000 450000 0  550000 450000 0  600000 450000 0  650000 450000 0  700000 450000 0  750000 450000 0  800000 450000 0  850000 450000 0  900000 450000 0  950000 450000 0  1000000 450000 0  0 500000 0  50000 500000 0  100000 500000 0  150000 500000 0  200000 500000 0  250000 500000 0  300000 500000 0  350000 500000 0  400000 500000 0  450000 500000 0  500000 500000 0  550000 500000 0  600000 500000 0  650000 500000 0  700000 500000 0  750000 500000 0  800000 500000 0  850000 500000 0  900000 500000 0  950000 500000 0  1000000 500000 0  0 550000 0  50000 550000 0  100000 550000 0  150000 550000 0  200000 550000 0  250000 550000 0  300000 550000 0  350000 550000 0  400000 550000 0  450000 550000 0  500000 550000 0  550000 550000 0  600000 550000 0  650000 550000 0  700000 550000 0  750000 550000 0  800000 550000 0  850000 550000 0  900000 550000 0  950000 550000 0  1000000 550000 0  0 600000 0  50000 600000 0  100000 600000 0  150000 600000 0  200000 600000 0  250000 600000 0  300000 600000 0  350000 600000 0  400000 600000 0  450000 600000 0  500000 600000 0  550000 600000 0  600000 600000 0  650000 600000 0  700000 600000 0  750000 600000 0  800000 600000 0  850000 600000 0  900000 600000 0  950000 600000 0  1000000 600000 0  0 650000 0  50000 650000 0  100000 650000 0  150000 650000 0  200000 650000 0  250000 650000 0  300000 650000 0  350000 650000 0  400000 650000 0  450000 650000 0  500000 650000 0  550000 650000 0  600000 650000 0  650000 650000 0  700000 650000 0  750000 650000 0  800000 650000 0  850000 650000 0  900000 650000 0  950000 650000 0  1000000 650000 0  0 700000 0  50000 700000 0  100000 700000 0  150000 700000 0  200000 700000 0  250000 700000 0  300000 700000 0  350000 700000 0  400000 700000 0  450000 700000 0  500000 700000 0  550000 700000 0  600000 700000 0  650000 700000 0  700000 700000 0  750000 700000 0  800000 700000 0  850000 700000 0  900000 700000 0  950000 700000 0  1000000 700000 0  0 750000 0  50000 750000 0  100000 750000 0  150000 750000 0  200000 750000 0  250000 750000 0  300000 750000 0  350000 750000 0  400000 750000 0  450000 750000 0  500000 750000 0  550000 750000 0  600000 750000 0  650000 750000 0  700000 750000 0  750000 750000 0  800000 750000 0  850000 750000 0  900000 750000 0  950000 750000 0  1000000 750000 0  0 800000 0  50000 800000 0  100000 800000 0  150000 800000 0  200000 800000 0  250000 800000 0  300000 800000 0  350000 800000 0  400000 800000 0  450000 800000 0  500000 800000 0  550000 800000 0  600000 800000 0  650000 800000 0  700000 800000 0  750000 800000 0  800000 800000 0  850000 800000 0  900000 800000 0  950000 800000 0  1000000 800000 0  0 850000 0  50000 850000 0  100000 850000 0  150000 850000 0  200000 850000 0  250000 850000 0  300000 850000 0  350000 850000 0  400000 850000 0  450000 850000 0  500000 850000 0  550000 850000 0  600000 850000 0  650000 850000 0  700000 850000 0  750000 850000 0  800000 850000 0  850000 850000 0  900000 850000 0  950000 850000 0  1000000 850000 0  0 900000 0  50000 900000 0  100000 900000 0  150000 900000 0  200000 900000 0  250000 900000 0  300000 900000 0  350000 900000 0  400000 900000 0  450000 900000 0  500000 900000 0  550000 900000 0  600000 900000 0  650000 900000 0  700000 900000 0  750000 900000 0  800000 900000 0  850000 900000 0  900000 900000 0  950000 900000 0  1000000 900000 0  0 950000 0  50000 950000 0  100000 950000 0  150000 950000 0  200000 950000 0  250000 950000 0  300000 950000 0  350000 950000 0  400000 950000 0  450000 950000 0  500000 950000 0  550000 950000 0  600000 950000 0  650000 950000 0  700000 950000 0  750000 950000 0  800000 950000 0  850000 950000 0  900000 950000 0  950000 950000 0  1000000 950000 0  0 1000000 0  50000 1000000 0  100000 1000000 0  150000 1000000 0  200000 1000000 0  250000 1000000 0  300000 1000000 0  350000 1000000 0  400000 1000000 0  450000 1000000 0  500000 1000000 0  550000 1000000 0  600000 1000000 0  650000 1000000 0  700000 1000000 0  750000 1000000 0  800000 1000000 0  850000 1000000 0  900000 1000000 0  950000 1000000 0  1000000 1000000 0  0 1050000 0  50000 1050000 0  100000 1050000 0  150000 1050000 0  200000 1050000 0  250000 1050000 0  300000 1050000 0  350000 1050000 0  400000 1050000 0  450000 1050000 0  500000 1050000 0  550000 1050000 0  600000 1050000 0  650000 1050000 0  700000 1050000 0  750000 1050000 0  800000 1050000 0  850000 1050000 0  900000 1050000 0  950000 1050000 0  1000000 1050000 0  0 1100000 0  50000 1100000 0  100000 1100000 0  150000 1100000 0  200000 1100000 0  250000 1100000 0  300000 1100000 0  350000 1100000 0  400000 1100000 0  450000 1100000 0  500000 1100000 0  550000 1100000 0  600000 1100000 0  650000 1100000 0  700000 1100000 0  750000 1100000 0  800000 1100000 0  850000 1100000 0  900000 1100000 0  950000 1100000 0  1000000 1100000 0  0 1150000 0  50000 1150000 0  100000 1150000 0  150000 1150000 0  200000 1150000 0  250000 1150000 0  300000 1150000 0  350000 1150000 0  400000 1150000 0  450000 1150000 0  500000 1150000 0  550000 1150000 0  600000 1150000 0  650000 1150000 0  700000 1150000 0  750000 1150000 0  800000 1150000 0  850000 1150000 0  900000 1150000 0  950000 1150000 0  1000000 1150000 0  0 1200000 0  50000 1200000 0  100000 1200000 0  150000 1200000 0  200000 1200000 0  250000 1200000 0  300000 1200000 0  350000 1200000 0  400000 1200000 0  450000 1200000 0  500000 1200000 0  550000 1200000 0  600000 1200000 0  650000 1200000 0  700000 1200000 0  750000 1200000 0  800000 1200000 0  850000 1200000 0  900000 1200000 0  950000 1200000 0  1000000 1200000 0  0 1250000 0  50000 1250000 0  100000 1250000 0  150000 1250000 0  200000 1250000 0  250000 1250000 0  300000 1250000 0  350000 1250000 0  400000 1250000 0  450000 1250000 0  500000 1250000 0  550000 1250000 0  600000 1250000 0  650000 1250000 0  700000 1250000 0  750000 1250000 0  800000 1250000 0  850000 1250000 0  900000 1250000 0  950000 1250000 0  1000000 1250000 0  0 1300000 0  50000 1300000 0  100000 1300000 0  150000 1300000 0  200000 1300000 0  250000 1300000 0  300000 1300000 0  350000 1300000 0  400000 1300000 0  450000 1300000 0  500000 1300000 0  550000 1300000 0  600000 1300000 0  650000 1300000 0  700000 1300000 0  750000 1300000 0  800000 1300000 0  850000 1300000 0  900000 1300000 0  950000 1300000 0  1000000 1300000 0  0 1350000 0  50000 1350000 0  100000 1350000 0  150000 1350000 0  200000 1350000 0  250000 1350000 0  300000 1350000 0  350000 1350000 0  400000 1350000 0  450000 1350000 0  500000 1350000 0  550000 1350000 0  600000 1350000 0  650000 1350000 0  700000 135
[...]
<PointData  Vectors="f_5995"> 
<DataArray  type="Float64"  Name="f_5995"  NumberOfComponents="3" format="ascii">1.8469259953559712e-12 3.3174974526016390e-12 0.0000000000000000e+00  8.0002170548632582e-08 2.3446958950706429e-12 0.0000000000000000e+00  8.0001649293340296e-08 9.1905360335835638e-13 0.0000000000000000e+00  8.0001096133873670e-08 2.4473148777530898e-13 0.0000000000000000e+00  8.0000899075574669e-08 9.0244130463321300e-14 0.0000000000000000e+00  8.0000781556354086e-08 6.0317031360554329e-14 0.0000000000000000e+00  8.0000699892559244e-08 4.3480765467314147e-14 0.0000000000000000e+00  8.0000646234705129e-08 2.9081956902876943e-14 0.0000000000000000e+00  8.0000613702713715e-08 1.7409452648736684e-14 0.0000000000000000e+00  8.0000597634110977e-08 7.5196741560558243e-15 0.0000000000000000e+00  8.0000595805718971e-08 -1.8338723484375631e-15 0.0000000000000000e+00  8.0000607911836401e-08 -1.1834983942188294e-14 0.0000000000000000e+00  8.0000635413496553e-08 -2.3877345298798745e-14 0.0000000000000000e+00  8.0000682036742702e-08 -3.9940985308594987e-14 0.0000000000000000e+00  8.0000755826293161e-08 -6.1304950497322685e-14 0.0000000000000000e+00  8.0000872233667103e-08 -7.9060594873995582e-14 0.0000000000000000e+00  8.0001044497878003e-08 -7.1497574105544963e-14 0.0000000000000000e+00  8.0001322334246672e-08 -2.2372995175269676e-13 0.0000000000000000e+00  8.0002318207331185e-08 -1.5670447012972844e-12 0.0000000000000000e+00  8.0001636494947166e-08 -1.8358874798490898e-12 0.0000000000000000e+00  9.3760449003177239e-13 -1.7371640198806635e-12 0.0000000000000000e+00  1.3176239004485022e-12 2.6249613577905624e-12 0.0000000000000000e+00  1.1954189285231724e-08 -1.1450185096374271e-09 0.0000000000000000e+00  1.3826760535627888e-08 -9.0210107427146279e-10 0.0000000000000000e+00  1.5475473945798355e-08 -3.9905562839639182e-10 0.0000000000000000e+00  1.6049074077006350e-08 -2.3685805251314789e-10 0.0000000000000000e+00  1.6260458465759385e-08 -1.4543045948680974e-10 0.0000000000000000e+00  1.6377507143168829e-08 -8.6025849213148495e-11 0.0000000000000000e+00  1.6453118677570450e-08 -4.6537115580266764e-11 0.0000000000000000e+00  1.6500492110964321e-08 -1.8096130489717347e-11 0.0000000000000000e+00  1.6526195567500671e-08 4.7712987203919280e-12 0.0000000000000000e+00  1.6533721854172914e-08 2.5540140654250518e-11 0.0000000000000000e+00  1.6524202998877507e-08 4.6943878225267516e-11 0.0000000000000000e+00  1.6496717869702482e-08 7.1846038313102483e-11 0.0000000000000000e+00  1.6448145071518965e-08 1.0413321539153415e-10 0.0000000000000000e+00  1.6372717111203355e-08 1.4993908020084376e-10 0.0000000000000000e+00  1.6262739105809931e-08 2.1876884412876983e-10 0.0000000000000000e+00  1.6111551079452483e-08 3.2585384597928675e-10 0.0000000000000000e+00  1.5866046400294433e-08 5.4712466201354264e-10 0.0000000000000000e+00  1.4992000076362816e-08 1.4087607977537750e-09 0.0000000000000000e+00  1.1472188600481888e-08 4.0170684500834187e-09 0.0000000000000000e+00  1.4066800852443577e-12 -2.0553123240268933e-12 0.0000000000000000e+00  4.4410957124932134e-13 1.3295498192004576e-12 0.0000000000000000e+00  3.2177907002122328e-10 -2.6231167792865386e-09 0.0000000000000000e+00  1.8929255866482369e-09 -1.2887563135193794e-09 0.0000000000000000e+00  1.6128229597685352e-09 -8.0981922842739088e-10 0.0000000000000000e+00  1.8440214127024233e-09 -5.1477596161594339e-10 0.0000000000000000e+00  2.0550562944199618e-09 -3.2809597960917837e-10 0.0000000000000000e+00  2.1838405895911967e-09 -2.1085971527098732e-10 0.0000000000000000e+00  2.2649727387823298e-09 -1.3233817915084631e-10 0.0000000000000000e+00  2.3165488454111319e-09 -7.5136973162582507e-11 0.0000000000000000e+00  2.3458492661602780e-09 -2.9170724301751816e-11 0.0000000000000000e+00  2.3562715558084625e-09 1.2092982716306016e-11 0.0000000000000000e+00  2.3491613001809067e-09 5.3753010114945355e-11 0.0000000000000000e+00  2.3242633079044066e-09 1.0090129587056994e-10 0.0000000000000000e+00  2.2798980250441493e-09 1.5998124263144384e-10 0.0000000000000000e+00  2.2132458257229491e-09 2.4067727387181813e-10 0.0000000000000000e+00  2.1211130575499248e-09 3.5967497770875894e-10 0.0000000000000000e+00  1.9987462995094281e-09 5.5216867817913774e-10 0.0000000000000000e+00  1.8231273012319642e-09 9.0637200906435895e-10 0.0000000000000000e+00  1.5455255137040031e-09 1.5600313542441155e-09 0.0000000000000000e+00  1.3758566952700382e-09 2.0558658664887745e-09 0.0000000000000000e+00  1.2326483281552811e-12 -2.3261092837396588e-12 0.0000000000000000e+00  1.6382951967704558e-13 9.0992163633428700e-13 0.0000000000000000e+00  -3.6836867133743639e-10 -1.5047866436369875e-09 0.0000000000000000e+00  -4.3590447898843955e-10 -1.4123051919582005e-09 0.0000000000000000e+00  -5.3261114250701496e-10 -9.8612835373714522e-10 0.0000000000000000e+00  -5.4559228099679906e-10 -6.5482763146810516e-10 0.0000000000000000e+00  -4.9205788899425287e-10 -4.4170099686818304e-10 0.0000000000000000e+00  -4.2433491026802748e-10 -2.9651622412058868e-10 0.0000000000000000e+00  -3.6974549813129829e-10 -1.9354482280599366e-10 0.0000000000000000e+00  -3.3182701548428868e-10 -1.1582431320444504e-10 0.0000000000000000e+00  -3.0902763762761721e-10 -5.2160612104872997e-11 0.0000000000000000e+00  -2.9993459417330294e-10 5.2258067470466038e-12 0.0000000000000000e+00  -3.0375333259306642e-10 6.2577975536355418e-11 0.0000000000000000e+00  -3.2015571485129004e-10 1.2599445209297126e-10 0.0000000000000000e+00  -3.4895514012963380e-10 2.0272625700096481e-10 0.0000000000000000e+00  -3.8939339004796204e-10 3.0282561023057976e-10 0.0000000000000000e+00  -4.3869157356515038e-10 4.4175890126520376e-10 0.0000000000000000e+00  -4.8899328086771103e-10 6.4384575432041035e-10 0.0000000000000000e+00  -5.1603262182846229e-10 9.3573164665428659e-10 0.0000000000000000e+00  -4.3376978710556588e-10 1.2715594626153980e-09 0.0000000000000000e+00  -7.2546939954922497e-11 1.2830335764239252e-09 0.0000000000000000e+00  1.2896277630884934e-13 -1.2301233193099731e-12 0.0000000000000000e+00  1.0030665446354450e-13 7.0809442867860385e-13 0.0000000000000000e+00  -2.9198029184045986e-10 -1.0139157181555840e-09 0.0000000000000000e+00  -5.6204995459766446e-10 -1.1498100462760412e-09 0.0000000000000000e+00  -7.0291124500961387e-10 -9.1333342950881123e-10 0.0000000000000000e+00  -7.8983469805270134e-10 -6.7628887063880820e-10 0.0000000000000000e+00  -8.0439021411818067e-10 -4.8302574297991690e-10 0.0000000000000000e+00  -7.9150944522681933e-10 -3.3788770940224061e-10 0.0000000000000000e+00  -7.7079306037037918e-10 -2.2753501540291414e-10 0.0000000000000000e+00  -7.5190473075895779e-10 -1.3990639232329656e-10 0.0000000000000000e+00  -7.3884284799641210e-10 -6.5862030420566917e-11 0.0000000000000000e+00  -7.3280430530151337e-10 1.7374538737226238e-12 0.0000000000000000e+00  -7.3385092043096437e-10 6.8970364956842594e-11 0.0000000000000000e+00  -7.4138545776264509e-10 1.4172886762811237e-10 0.0000000000000000e+00  -7.5394136485131104e-10 2.2653775471788034e-10 0.0000000000000000e+00  -7.6837152346558118e-10 3.3132389629598856e-10 0.0000000000000000e+00  -7.7809379842577543e-10 4.6578366279802113e-10 0.0000000000000000e+00  -7.6931611555341697e-10 6.3931167906620478e-10 0.0000000000000000e+00  -7.1311906604301787e-10 8.4915464167291023e-10 0.0000000000000000e+00  -5.5798690021317034e-10 1.0416326023240095e-09 0.0000000000000000e+00  -2.6967747143175399e-10 1.0048383615086368e-09 0.0000000000000000e+00  5.4992633996664317e-14 -9.0735288148085883e-13 0.0000000000000000e+00  7.9536421218086481e-14 5.6332097338540739e-13 0.0000000000000000e+00  -2.1175341591338429e-10 -7.8061432889951086e-10 0.0000000000000000e+00  -4.3066289564026898e-10 -9.0342597458207569e-10 0.0000000000000000e+00  -5.8858392659203622e-10 -7.8843970434103737e-10 0.0000000000000000e+00  -6.8730496952265413e-10 -6.2381640987794666e-10 0.0000000000000000e+00  -7.3827520166084061e-10 -4.7147182845368046e-10 0.0000000000000000e+00  -7.5795740100825855e-10 -3.4367400063085265e-10 0.0000000000000000e+00  -7.6189945264826129e-10 -2.3829119404843801e-10 0.0000000000000000e+00  -7.5954472775519842e-10 -1.4985696441495406e-10 0.0000000000000000e+00  -7.5585065306284573e-10 -7.2423593359865113e-11 0.0000000000000000e+00  -7.5314857872881563e-10 -5.2953982931458254e-13 0.0000000000000000e+00  -7.5209767085443754e-10 7.0847167751330159e-11 0.0000000000000000e+00  -7.5208116478081924e-10 1.4657988704780829e-10 0.0000000000000000e+00  -7.5110668678138558e-10 2.3166152458707542e-10 0.0000000000000000e+00  -7.4520461765651138e-10 3.3122676986437980e-10 0.0000000000000000e+00  -7.2723623064594360e-10 4.4982478740440670e-10 0.0000000000000000e+00  -6.8507892731909540e-10 5.8871664865048655e-10 0.0000000000000000e+00  -6.0027964936377983e-10 7.3862929756665927e-10 0.0000000000000000e+00  -4.5257180110886490e-10 8.6048924086464033e-10 0.0000000000000000e+00  -2.3920432340345880e-10 8.0764002671625411e-10 0.0000000000000000e+00  9.5680522993340010e-14 -7.0069660873992592e-13 0.0000000000000000e+00  6.3774248674671037e-14 4.5039884073173843e-13 0.0000000000000000e+00  -1.5829390610211557e-10 -6.2106519978876922e-10 0.0000000000000000e+00  -3.2696273263298955e-10 -7.2442833856287408e-10 0.0000000000000000e+00  -4.6601594268338406e-10 -6.6040241940428163e-10 0.0000000000000000e+00  -5.6474102422797555e-10 -5.4806004051604897e-10 0.0000000000000000e+00  -6.2853925306120608e-10 -4.3208447079767397e-10 0.0000000000000000e+00  -6.6552317799345277e-10 -3.2568442621318012e-10 0.0000000000000000e+00  -6.8522382685376636e-10 -2.3174976110130438e-10 0.0000000000000000e+00  -6.9461304927080936e-10 -1.4866482732414515e-10 0.0000000000000000e+00  -6.9815962510410935e-10 -7.3306054292915822e-11 0.0000000000000000e+00  -6.9826695171099494e-10 -2.0935917434319706e-12 0.0000000000000000e+00  -6.9575245684611015e-10 6.8603939971853022e-11 0.0000000000000000e+00  -6.9008124277506326e-10 1.4233614762075338e-10 0.0000000000000000e+00  -6.7931902207577755e-10 2.2245678728132696e-10 0.0000000000000000e+00  -6.5983033982347764e-10 3.1178942019530863e-10 0.0000000000000000e+00  -6.2581531386623309e-10 4.1175910499264644e-10 0.0000000000000000e+00  -5.6904535768614652e-10 5.2052265378746346e-10 0.0000000000000000e+00  -4.7985554957728068e-10 6.2903554408689790e-10 0.0000000000000000e+00  -3.5117665937941770e-10 7.0863741230601730e-10 0.0000000000000000e+00  -1.8520628541113308e-10 6.4873301560444557e-10 0.0000000000000000e+00  8.7992454731421026e-14 -5.4819404597966526e-13 0.0000000000000000e+00  5.1421657909649900e-14 3.6160930939862101e-13 0.0000000000000000e+00  -1.2367973497566108e-10 -4.9804305487946286e-10 0.0000000000000000e+00  -2.5743926318636052e-10 -5.8654575998644090e-10 0.0000000000000000e+00  -3.7453216278067320e-10 -5.4686731719925418e-10 0.0000000000000000e+00  -4.6605075158118975e-10 -4.6845848821731333e-10 0.0000000000000000e+00  -5.3213394084489973e-10 -3.8059897410445342e-10 0.0000000000000000e+00  -5.7680316906296988e-10 -2.9450314251708496e-10 0.0000000000000000e+00  -6.0520511088481003e-10 -2.1402854218191618e-10 0.0000000000000000e+00  -6.2196995070961060e-10 -1.3960788580710567e-10 0.0000000000000000e+00  -6.3042884514620602e-10 -6.9980521940848125e-11 0.0000000000000000e+00  -6.3256159771665728e-10 -3.1028994419428449e-12 0.0000000000000000e+00  -6.2911003262478133e-10 6.3349296041456173e-11 0.0000000000000000e+00  -6.1966245164103293e-10 1.3167465636685393e-10 0.0000000000000000e+00  -6.0265159629533367e-10 2.0386124844002641e-10 0.0000000000000000e+00  -5.7528833335684419e-10 2.8117588760148703e-10 0.0000000000000000e+00  -5.3355756650975845e-10 3.6348774756522929e-10 0.0000000000000000e+00  -4.7256863545543941e-10 4.4816339703242842e-10 0.0000000000000000e+00  -3.8773448542711335e-10 5.2777885353335798e-10 0.0000000000000000e+00  -2.7706566122996030e-10 5.8096445350044306e-10 0.0000000000000000e+00  -1.4369829228596957e-10 5.2261772328112417e-10 0.0000000000000000e+00  6.9599818621674694e-14 -4.3680450171318818e-13 0.0000000000000000e+00  4.2514052463216753e-14 2.8995707634078373e-13 0.0000000000000000e+00  -1.0044667637621232e-10 -3.9964600358008973e-10 0.0000000000000000e+00  -2.0983609317269671e-10 -4.7448627062105642e-10 0.0000000000000000e+00  -3.0901992462617011e-10 -4.4889826411418024e-10 0.0000000000000000e+00  -3.9122722593230368e-10 -3.9246320340373236e-10 0.0000000000000000e+00  -4.5501182197946172e-10 -3.2578171087442385e-10 0.0000000000000000e+00  -5.0180836126922622e-10 -2.5709534345473047e-10 0.0000000000000000e+00  -5.3423464489059062e-10 -1.8997683482763271e-10 0.0000000000000000e+00  -5.5504244720535969e-10 -1.2562646659471719e-10 0.0000000000000000e+00  -5.6644676510006032e-10 -6.3847207165993372e-11 0.0000000000000000e+00  -5.6987266005661501e-10 -3.6765474543247913e-12 0.0000000000000000e+00  -5.6588939014295849e-10 5.6185414800032349e-11 0.0000000000000000e+00  -5.5421370906342721e-10 1.1704552448283029e-10 0.0000000000000000e+00  -5.3373105592287499e-10 1.7990755736303340e-10 0.0000000000000000e+00  -5.0255361516197764e-10 2.4511292970700846e-10 0.0000000000000000e+00  -4.5820106107566112e-10 3.1188461903465341e-10 0.0000000000000000e+00  -3.9805204782778806e-10 3.7770004857157806e-10 0.0000000000000000e+00  -3.2021161691564621e-10 4.3684101631319424e-10 0.0000000000000000e+00  -2.2474332244389925e-10 4.7334771766158946e-10 0.0000000000000000e+00  -1.1484034790868150e-10 4.2112035008319772e-10 0.0000000000000000e+00  5.5278630906027581e-14 -3.5056846673096816e-13 0.0000000000000000e+00  3.6159307713918683e-14 2.3033084962025571e-13 0.0000000000000000e+00  -8.4254818540457061e-11 -3.1852281862882644e-10 0.0000000000000000e+00  -1.7624321636152241e-10 -3.8064349992034563e-10 0.0000000000000000e+00  -2.6156083320204593e-10 -3.6387520326086091e-10 0.0000000000000000e+00  -3.3496148765946937e-10 -3.2252926666316729e-10 0.0000000000000000e+00  -3.9465299682220142e-10 -2.7183579731229370e-10 0.0000000000000000e+00  -4.4074291339319776e-10 -2.1767476083851386e-10 0.0000000000000000e+00  -4.7435792344479453e-10 -1.6293774792346287e-10 0.0000000000000000e+00  -4.9696073320151338e-10 -1.0895393713939172e-10 0.0000000000000000e+00  -5.0987717646119101e-10 -5.6051114518499594e-11 0.0000000000000000e+00  -5.1402478055632047e-10 -3.9383589049163479e-12 0.0000000000000000e+00  -5.0979244875833077e-10 4.7975874547601089e-11 0.0000000000000000e+00  -4.9700805875520471e-10 1.0030448762210622e-10 0.0000000000000000e+00  -4.7496706250531604e-10 1.5341596617263684e-10 0.0000000000000000e+00  -4.4253140806343111e-10 2.0716138365919728e-10 0.0000000000000000e+00  -3.9834013347078807e-10 2.6058603279910751e-10 0.0000000000000000e+00  -3.4118615986538710e-10 3.1157473241870544e-10 0.0000000000000000e+00  -2.7058073296346032e-10 3.5587254316731962e-10 0.0000000000000000e+00  -1.8742842219769074e-10 3.8158967961983394e-10 0.0000000000000000e+00  -9.4673218004648811e-11 3.3728430337724798e-10 0.0000000000000000e+00  4.5288033741918774e-14 -2.8068144390884624e-13 0.0000000000000000e+00  3.1591143006093506e-14 1.7929057722034521e-13 0.0000000000000000e+00  -7.2731337798210117e-11 -2.4967710310848205e-10 0.0000000000000000e+00  -1.5210705229287527e-10 -3.0017040559360337e-10 0.0000000000000000e+00  -2.2682508621733085e-10 -2.8918540034212717e-10 0.0000000000000000e+00  -2.9271217745498503e-10 -2.5883099762183799e-10 0.0000000000000000e+00  -3.4798087795921992e-10 -2.2053501444350343e-10 0.0000000000000000e+00  -3.9211579953294952e-10 -1.7852117154180605e-10 0.0000000000000000e+00  -4.2538218419316906e-10 -1.3497944747090116e-10 0.0000000000000000e+00  -4.4841774136279712e-10 -9.1104400461529450e-11 0.0000000000000000e+00  -4.6191152336077683e-10 -4.7419313700460996e-11 0.0000000000000000e+00  -4.6638632425918371e-10 -4.0001645209894685e-12 0.0000000000000000e+00  -4.6208014665031869e-10 3.9309637217705318e-11 0.0000000000000000e+00  -4.4890616870727268e-10 8.2690960989696218e-11 0.0000000000000000e+00  -4.2647946192082726e-10 1.2614776347505247e-10 0.0000000000000000e+00  -3.9421313554799809e-10 1.6931575591462888e-10 0.0000000000000000e+00  -3.5149741867741457e-10 2.1128659773606912e-10 0.0000000000000000e+00  -2.9797212656643245e-10 2.5040625663022118e-10 0.0000000000000000e+00  -2.3387885788352477e-10 2.8359150959653620e-10 0.0000000000000000e+00  -1.6044450680679583e-10 3.0207736218975194e-10 0.0000000000000000e+00  -8.0309829767236478e-11 2.6621203260066815e-10 0.0000000000000000e+00  3.8192908778183969e-14 -2.2226634283545276e-13 0.0000000000000000e+00  2.8336113420333421e-14 1.3442184609242822e-13 0.0000000000000000e+00  -6.4526553632173846e-11 -1.8964349256750776e-10 0.0000000000000000e+00  -1.3475777445328037e-10 -2.2955716752996726e-10 0.0000000000000000e+00  -2.0149731137610582e-10 -2.2257966191274337e-10 0.0000000000000000e+00  -2.6132523753213783e-10 -2.0066923568946631e-10 0.0000000000000000e+00  -3.1255803116665581e-10 -1.7235811358721317e-10 0.0000000000000000e+00  -3.5439589440415058e-10 -1.4068155712951279e-10 0.0000000000000000e+00  -3.8662369389507822e-10 -1.0723797398115988e-10 0.0000000000000000e+00  -4.0937071622823679e-10 -7.2994100313184487e-11 0.0000000000000000e+00  -4.2290168697071693e-10 -3.8486638049948796e-11 0.0000000000000000e+00  -4.2745975122399545e-10 -3.9515973043823854e-12 0.0000000000000000e+00  -4.2317080391929609e-10 3.0539521703387211e-11 0.0000000000000000e+00  -4.1000802869665672e-10 6.4936737075910540e-11 0.0000000000000000e+00  -3.8781333267764653e-10 9.9071518489893683e-11 0.0000000000000000e+00  -3.5637511778247363e-10 1.3253025218330120e-10 0.0000000000000000e+00  -3.1556248642653304e-10 1.6455037431229293e-10 0.0000000000000000e+00  -2.6550987195195660e-10 1.9390713865894794e-10 0.0000000000000000e+00  -2.0683393822782998e-10 2.1844198512269252e-10 0.0000000000000000e+00  -1.4086341677027115e-10 2.3187583772166227e-10 0.0000000000000000e+00  -6.9984077370316800e-11 2.0443868001166315e-10 0.0000000000000000e+00  3.3069678391046119e-14 -1.7210400241156211e-13 0.0000000000000000e+00  2.6111475643688661e-14 9.3918091675650052e-14 0.0000000000000000e+00  -5.8842488285986325e-11 -1.3588716685145949e-10 0.0000000000000000e+00  -1.2258960734153287e-10 -1.6611794302770778e-10 0.0000000000000000e+00  -1.8351045353227376e-10 -1.6211079267564101e-10 0.0000000000000000e+00  -2.3871187383151094e-10 -1.4703906292660088e-10 0.0000000000000000e+00  -2.8662784887272897e-10 -1.2710942216011790e-10 0.0000000000000000e+00  -3.2633584540938490e-10 -1.0446228667103966e-10 0.0000000000000000e+00  -3.5736064084089842e-10 -8.0218739425852287e-11 0.0000000000000000e+00  -3.7952981536613571e-10 -5.5098543590426246e-11 0.0000000000000000e+00  -3.9284043470910957e-10 -2.9556808000681388e-11 0.0000000000000000e+00  -3.9735081265450015e-10 -3.8582489790291175e-12 0.0000000000000000e+00  -3.9310993932716926e-10 2.1840761626268186e-11 0.0000000000000000e+00  -3.8012998387339603e-10 4.7400933608512149e-11 0.0000000000000000e+00  -3.5840254385019583e-10 7.2609363928048809e-11 0.0000000000000000e+00  -3.2795682842231244e-10 9.7100462181380805e-11 0.0000000000000000e+00  -2.8895482756056737e-10 1.2029743264063565e-10 0.0000000000000000e+00  -2.4181323980083401e-10 1.4135391765739865e-10 0.0000000000000000e+00  -1.8733805849384709e-10 1.5885471943616261e-10 0.0000000000000000e+00  -1.2687410348064466e-10 1.6858864399583189e-10 0.0000000000000000e+00  -6.2629107677276864e-11 1.4938963389888156e-10 0.0000000000000000e+00  2.9384137930280337e-14 -1.2787576871713781e-13 0.0000000000000000e+00  2.4748143524728671e-14 5.6340361676267452e-14 0.0000000000000000e+00  -5.5202612710194794e-11 -8.6431694741231882e-11 0.0000000000000000e+00  -1.1462926959696695e-10 -1.0769221163427740e-10 0.0000000000000000e+00  -1.7157769328124908e-10 -1.0606561609764897e-10 0.0000000000000000e+00  -2.2351789084167928e-10 -9.6839121277624472e-11 0.0000000000000000e+00  -2.6898366995837725e-10 -8.4253675716864628e-11 0.0000000000000000e+00  -3.0700676096221423e