<?xml version="1.0"?>
<VTKFile type="UnstructuredGrid"  version="0.1"  >
<UnstructuredGrid>
<Piece  NumberOfPoints="651" NumberOfCells="1200">
<Points>
<DataArray  type="Float64"  NumberOfComponents="3"  format="ascii">0 0 0  50000 0 0  100000 0 0  150000 0 0  200000 0 0  250000 0 0  300000 0 0  350000 0 0  400000 0 0  450000 0 0  500000 0 0  550000 0 0  600000 0 0  650000 0 0  700000 0 0  750000 0 0  800000 0 0  850000 0 0  900000 0 0  950000 0 0  1000000 0 0  0 50000 0  50000 50000 0  100000 50000 0  150000 50000 0  200000 50000 0  250000 50000 0  300000 50000 0  350000 50000 0  400000 50000 0  450000 50000 0  500000 50000 0  550000 50000 0  600000 50000 0  650000 50000 0  700000 50000 0  750000 50000 0  800000 50000 0  850000 50000 0  900000 50000 0  950000 50000 0  1000000 50000 0  0 100000 0  50000 100000 0  100000 100000 0  150000 100000 0  200000 100000 0  250000 100000 0  300000 100000 0  350000 100000 0  400000 100000 0  450000 100000 0  500000 100000 0  550000 100000 0  600000 100000 0  650000 100000 0  700000 100000 0  750000 100000 0  800000 100000 0  850000 100000 0  900000 100000 0  950000 100000 0  1000000 100000 0  0 150000 0  50000 150000 0  100000 150000 0  150000 150000 0  200000 150000 0  250000 150000 0  300000 150000 0  350000 150000 0  400000 150000 0  450000 150000 0  500000 150000 0  550000 150000 0  600000 150000 0  650000 150000 0  700000 150000 0  750000 150000 0  800000 150000 0  850000 150000 0  900000 150000 0  950000 150000 0  1000000 150000 0  0 200000 0  50000 200000 0  100000 200000 0  150000 200000 0  200000 200000 0  250000 200000 0  300000 200000 0  350000 200000 0  400000 200000 0  450000 200000 0  500000 200000 0  550000 200000 0  600000 200000 0  650000 200000 0  700000 200000 0  750000 200000 0  800000 200000 0  850000 200000 0  900000 200000 0  950000 200000 0  1000000 200000 0  0 250000 0  50000 250000 0  100000 250000 0  150000 250000 0  200000 250000 0  250000 250000 0  300000 250000 0  350000 250000 0  400000 250000 0  450000 250000 0  500000 250000 0  550000 250000 0  600000 250000 0  650000 250000 0  700000 250000 0  750000 250000 0  800000 250000 0  850000 250000 0  900000 250000 0  950000 250000 0  1000000 250000 0  0 300000 0  50000 300000 0  100000 300000 0  150000 300000 0  200000 300000 0  250000 300000 0  300000 300000 0  350000 300000 0  400000 300000 0  450000 300000 0  500000 300000 0  550000 300000 0  600000 300000 0  650000 300000 0  700000 300000 0  750000 300000 0  800000 300000 0  850000 300000 0  900000 300000 0  950000 300000 0  1000000 300000 0  0 350000 0  50000 350000 0  100000 350000 0  150000 350000 0  200000 350000 0  250000 350000 0  300000 350000 0  350000 350000 0  400000 350000 0  450000 350000 0  500000 350000 0  550000 350000 0  600000 350000 0  650000 350000 0  700000 350000 0  750000 350000 0  800000 350000 0  850000 350000 0  900000 350000 0  950000 350000 0  1000000 350000 0  0 400000 0  50000 400000 0  100000 400000 0  150000 400000 0  200000 400000 0  250000 400000 0  300000 400000 0  350000 400000 0  400000 400000 0  450000 400000 0  500000 400000 0  550000 400000 0  600000 400000 0  650000 400000 0  700000 400000 0  750000 400000 0  800000 400000 0  850000 400000 0  900000 400000 0  950000 400000 0  1000000 400000 0  0 450000 0  50000 450000 0  100000 450000 0  150000 450000 0  200000 450000 0  250000 450000 0  300000 450000 0  350000 450000 0  400000 450000 0  450000 450000 0  500000 450000 0  550000 450000 0  600000 450000 0  650000 450000 0  700000 450000 0  750000 450000 0  800000 450000 0  850000 450000 0  900000 450000 0  950000 450000 0  1000000 450000 0  0 500000 0  50000 500000 0  100000 500000 0  150000 500000 0  200000 500000 0  250000 500000 0  300000 500000 0  350000 500000 0  400000 500000 0  450000 500000 0  500000 500000 0  550000 500000 0  600000 500000 0  650000 500000 0  700000 500000 0  750000 500000 0  800000 500000 0  850000 500000 0  900000 500000 0  950000 500000 0  1000000 500000 0  0 550000 0  50000 550000 0  100000 550000 0  150000 550000 0  200000 550000 0  250000 550000 0  300000 550000 0  350000 550000 0  400000 550000 0  450000 550000 0  500000 550000 0  550000 550000 0  600000 550000 0  650000 550000 0  700000 550000 0  750000 550000 0  800000 550000 0  850000 550000 0  900000 550000 0  950000 550000 0  1000000 550000 0  0 600000 0  50000 600000 0  100000 600000 0  150000 600000 0  200000 600000 0  250000 600000 0  300000 600000 0  350000 600000 0  400000 600000 0  450000 600000 0  500000 600000 0  550000 600000 0  600000 600000 0  650000 600000 0  700000 600000 0  750000 600000 0  800000 600000 0  850000 600000 0  900000 600000 0  950000 600000 0  1000000 600000 0  0 650000 0  50000 650000 0  100000 650000 0  150000 650000 0  200000 650000 0  250000 650000 0  300000 650000 0  350000 650000 0  400000 650000 0  450000 650000 0  500000 650000 0  550000 650000 0  600000 650000 0  650000 650000 0  700000 650000 0  750000 650000 0  800000 650000 0  850000 650000 0  900000 650000 0  950000 650000 0  1000000 650000 0  0 700000 0  50000 700000 0  100000 700000 0  150000 700000 0  200000 700000 0  250000 700000 0  300000 700000 0  350000 700000 0  400000 700000 0  450000 700000 0  500000 700000 0  550000 700000 0  600000 700000 0  650000 700000 0  700000 700000 0  750000 700000 0  800000 700000 0  850000 700000 0  900000 700000 0  950000 700000 0  1000000 700000 0  0 750000 0  50000 750000 0  100000 750000 0  150000 750000 0  200000 750000 0  250000 750000 0  300000 750000 0  350000 750000 0  400000 750000 0  450000 750000 0  500000 750000 0  550000 750000 0  600000 750000 0  650000 750000 0  700000 750000 0  750000 750000 0  800000 750000 0  850000 750000 0  900000 750000 0  950000 750000 0  1000000 750000 0  0 800000 0  50000 800000 0  100000 800000 0  150000 800000 0  200000 800000 0  250000 800000 0  300000 800000 0  350000 800000 0  400000 800000 0  450000 800000 0  500000 800000 0  550000 800000 0  600000 800000 0  650000 800000 0  700000 800000 0  750000 800000 0  800000 800000 0  850000 800000 0  900000 800000 0  950000 800000 0  1000000 800000 0  0 850000 0  50000 850000 0  100000 850000 0  150000 850000 0  200000 850000 0  250000 850000 0  300000 850000 0  350000 850000 0  400000 850000 0  450000 850000 0  500000 850000 0  550000 850000 0  600000 850000 0  650000 850000 0  700000 850000 0  750000 850000 0  800000 850000 0  850000 850000 0  900000 850000 0  950000 850000 0  1000000 850000 0  0 900000 0  50000 900000 0  100000 900000 0  150000 900000 0  200000 900000 0  250000 900000 0  300000 900000 0  350000 900000 0  400000 900000 0  450000 900000 0  500000 900000 0  550000 900000 0  600000 900000 0  650000 900000 0  700000 900000 0  750000 900000 0  800000 900000 0  850000 900000 0  900000 900000 0  950000 900000 0  1000000 900000 0  0 950000 0  50000 950000 0  100000 950000 0  150000 950000 0  200000 950000 0  250000 950000 0  300000 950000 0  350000 950000 0  400000 950000 0  450000 950000 0  500000 950000 0  550000 950000 0  600000 950000 0  650000 950000 0  700000 950000 0  750000 950000 0  800000 950000 0  850000 950000 0  900000 950000 0  950000 950000 0  1000000 950000 0  0 1000000 0  50000 1000000 0  100000 1000000 0  150000 1000000 0  200000 1000000 0  250000 1000000 0  300000 1000000 0  350000 1000000 0  400000 1000000 0  450000 1000000 0  500000 1000000 0  550000 1000000 0  600000 1000000 0  650000 1000000 0  700000 1000000 0  750000 1000000 0  800000 1000000 0  850000 1000000 0  900000 1000000 0  950000 1000000 0  1000000 1000000 0  0 1050000 0  50000 1050000 0  100000 1050000 0  150000 1050000 0  200000 1050000 0  250000 1050000 0  300000 1050000 0  350000 1050000 0  400000 1050000 0  450000 1050000 0  500000 1050000 0  550000 1050000 0  600000 1050000 0  650000 1050000 0  700000 1050000 0  750000 1050000 0  800000 1050000 0  850000 1050000 0  900000 1050000 0  950000 1050000 0  1000000 1050000 0  0 1100000 0  50000 1100000 0  100000 1100000 0  150000 1100000 0  200000 1100000 0  250000 1100000 0  300000 1100000 0  350000 1100000 0  400000 1100000 0  450000 1100000 0  500000 1100000 0  550000 1100000 0  600000 1100000 0  650000 1100000 0  700000 1100000 0  750000 1100000 0  800000 1100000 0  850000 1100000 0  900000 1100000 0  950000 1100000 0  1000000 1100000 0  0 1150000 0  50000 1150000 0  100000 1150000 0  150000 1150000 0  200000 1150000 0  250000 1150000 0  300000 1150000 0  350000 1150000 0  400000 1150000 0  450000 1150000 0  500000 1150000 0  550000 1150000 0  600000 1150000 0  650000 1150000 0  700000 1150000 0  750000 1150000 0  800000 1150000 0  850000 1150000 0  900000 1150000 0  950000 1150000 0  1000000 1150000 0  0 1200000 0  50000 1200000 0  100000 1200000 0  150000 1200000 0  200000 1200000 0  250000 1200000 0  300000 1200000 0  350000 1200000 0  400000 1200000 0  450000 1200000 0  500000 1200000 0  550000 1200000 0  600000 1200000 0  650000 1200000 0  700000 1200000 0  750000 1200000 0  800000 1200000 0  850000 1200000 0  900000 1200000 0  950000 1200000 0  1000000 1200000 0  0 1250000 0  50000 1250000 0  100000 1250000 0  150000 1250000 0  200000 1250000 0  250000 1250000 0  300000 1250000 0  350000 1250000 0  400000 1250000 0  450000 1250000 0  500000 1250000 0  550000 1250000 0  600000 1250000 0  650000 1250000 0  700000 1250000 0  750000 1250000 0  800000 1250000 0  850000 1250000 0  900000 1250000 0  950000 1250000 0  1000000 1250000 0  0 1300000 0  50000 1300000 0  100000 1300000 0  150000 1300000 0  200000 1300000 0  250000 1300000 0  300000 1300000 0  350000 1300000 0  400000 1300000 0  450000 1300000 0  500000 1300000 0  550000 1300000 0  600000 1300000 0  650000 1300000 0  700000 1300000 0  750000 1300000 0  800000 1300000 0  850000 1300000 0  900000 1300000 0  950000 1300000 0  1000000 1300000 0  0 1350000 0  50000 1350000 0  100000 1350000 0  150000 1350000 0  200000 1350000 0  250000 1350000 0  300000 1350000 0  350000 1350000 0  400000 1350000 0  450000 1350000 0  500000 1350000 0  550000 1350000 0  600000 1350000 0  650000 1350000 0  700000 135
[...]
<PointData  Vectors="f_5995"> 
<DataArray  type="Float64"  Name="f_5995"  NumberOfComponents="3" format="ascii">1.8349832253030738e-12 3.3194253818903534e-12 0.0000000000000000e+00  8.0002169996337309e-08 2.3436886409652087e-12 0.0000000000000000e+00  8.0001677883463606e-08 9.3709147653838170e-13 0.0000000000000000e+00  8.0001106917687926e-08 2.5066654953097840e-13 0.0000000000000000e+00  8.0000904880206475e-08 9.0081828651221091e-14 0.0000000000000000e+00  8.0000787716642705e-08 6.0353572927007026e-14 0.0000000000000000e+00  8.0000705826502223e-08 4.3936137403087836e-14 0.0000000000000000e+00  8.0000651654560295e-08 2.9405619633856967e-14 0.0000000000000000e+00  8.0000618843276389e-08 1.7568819750964869e-14 0.0000000000000000e+00  8.0000602711776624e-08 7.5828777526775220e-15 0.0000000000000000e+00  8.0000600982339904e-08 -1.8562953691644226e-15 0.0000000000000000e+00  8.0000613357013523e-08 -1.2019624314009580e-14 0.0000000000000000e+00  8.0000641379890675e-08 -2.4611161815309144e-14 0.0000000000000000e+00  8.0000689489698559e-08 -4.1562505720115216e-14 0.0000000000000000e+00  8.0000768034974382e-08 -5.9020143194914558e-14 0.0000000000000000e+00  8.0000889180793462e-08 -5.9151713803144974e-14 0.0000000000000000e+00  8.0001031806088205e-08 -1.0958521781517450e-13 0.0000000000000000e+00  8.0001281249045133e-08 -8.3147494608313463e-13 0.0000000000000000e+00  8.0002300055233834e-08 -2.6443399586193872e-12 0.0000000000000000e+00  7.9993136119510510e-08 6.1077524787691716e-12 0.0000000000000000e+00  -9.4638316990547239e-12 8.6559941441270873e-12 0.0000000000000000e+00  1.3062982102654150e-12 2.6289459911295115e-12 0.0000000000000000e+00  1.2044110095838241e-08 -1.1459704363987685e-09 0.0000000000000000e+00  1.3907071900040399e-08 -9.0766379864596481e-10 0.0000000000000000e+00  1.5565870946980625e-08 -4.0530611327561714e-10 0.0000000000000000e+00  1.6143326889693863e-08 -2.4389188942654899e-10 0.0000000000000000e+00  1.6354824544972409e-08 -1.5291254840227589e-10 0.0000000000000000e+00  1.6471357695326359e-08 -9.3666848863536339e-11 0.0000000000000000e+00  1.6546590495406209e-08 -5.4249420569830799e-11 0.0000000000000000e+00  1.6593739242065402e-08 -2.5857797671538854e-11 0.0000000000000000e+00  1.6619323555911269e-08 -3.0322846474874509e-12 0.0000000000000000e+00  1.6626813894285789e-08 1.7696443892477946e-11 0.0000000000000000e+00  1.6617337486085551e-08 3.9056877831775025e-11 0.0000000000000000e+00  1.6589980646098281e-08 6.3906541441040607e-11 0.0000000000000000e+00  1.6541645616877733e-08 9.6121162654671823e-11 0.0000000000000000e+00  1.6466626219522684e-08 1.4180107887318556e-10 0.0000000000000000e+00  1.6357385649600237e-08 2.1035049944451865e-10 0.0000000000000000e+00  1.6207489488635355e-08 3.1693007686247690e-10 0.0000000000000000e+00  1.5962756782464751e-08 5.3888120624381215e-10 0.0000000000000000e+00  1.5079737011472306e-08 1.4093052753730042e-09 0.0000000000000000e+00  1.1507189151015091e-08 4.0353854534464131e-09 0.0000000000000000e+00  -6.5413304803509803e-12 6.4408672416513645e-12 0.0000000000000000e+00  4.5699969381391000e-13 1.3552007898744663e-12 0.0000000000000000e+00  3.3945109874103518e-10 -2.6259563485776141e-09 0.0000000000000000e+00  1.9320254383301436e-09 -1.2869683176996534e-09 0.0000000000000000e+00  1.6498618523264352e-09 -8.0970163089355930e-10 0.0000000000000000e+00  1.8805806733236365e-09 -5.1569589376185600e-10 0.0000000000000000e+00  2.0922101722102393e-09 -3.2966672719948659e-10 0.0000000000000000e+00  2.2210674387071699e-09 -2.1279777897399160e-10 0.0000000000000000e+00  2.3020458244737566e-09 -1.3448244236269956e-10 0.0000000000000000e+00  2.3534797482916995e-09 -7.7418504517014939e-11 0.0000000000000000e+00  2.3826978269810006e-09 -3.1559612765102453e-11 0.0000000000000000e+00  2.3930981375297814e-09 9.6091427268371180e-12 0.0000000000000000e+00  2.3860260286204056e-09 5.1174497075080548e-11 0.0000000000000000e+00  2.3612325702961826e-09 9.8216033123450401e-11 0.0000000000000000e+00  2.3170541155521524e-09 1.5715970462332147e-10 0.0000000000000000e+00  2.2507037243816312e-09 2.3765962762552153e-10 0.0000000000000000e+00  2.1590315644438513e-09 3.5636086623644422e-10 0.0000000000000000e+00  2.0371649179697249e-09 5.4851652449497151e-10 0.0000000000000000e+00  1.8609282758381995e-09 9.0289789835825649e-10 0.0000000000000000e+00  1.5775738769383865e-09 1.5580549512416880e-09 0.0000000000000000e+00  1.3891806121218456e-09 2.0545106995699968e-09 0.0000000000000000e+00  2.3064373423535797e-12 -2.3080696240309572e-12 0.0000000000000000e+00  1.6857552689817025e-13 9.1884445437400092e-13 0.0000000000000000e+00  -3.6530520982246932e-10 -1.5025509414261286e-09 0.0000000000000000e+00  -4.2501631940130016e-10 -1.4098806943274081e-09 0.0000000000000000e+00  -5.2096832916289272e-10 -9.8415529677314278e-10 0.0000000000000000e+00  -5.3352322091455292e-10 -6.5372738669923206e-10 0.0000000000000000e+00  -4.8029599539123320e-10 -4.4118482166112238e-10 0.0000000000000000e+00  -4.1263844292796187e-10 -2.9636010427984265e-10 0.0000000000000000e+00  -3.5807204535493529e-10 -1.9363847336016809e-10 0.0000000000000000e+00  -3.2019542836848582e-10 -1.1610470074145331e-10 0.0000000000000000e+00  -2.9742798269041236e-10 -5.2592376371910030e-11 0.0000000000000000e+00  -2.8833828284097539e-10 4.6585273818432616e-12 0.0000000000000000e+00  -2.9212498106614221e-10 6.1875899269951726e-11 0.0000000000000000e+00  -3.0845603853180971e-10 1.2514356917067365e-10 0.0000000000000000e+00  -3.3714164220140529e-10 2.0169504136321722e-10 0.0000000000000000e+00  -3.7742652162628027e-10 3.0156072132379022e-10 0.0000000000000000e+00  -4.2656995499653733e-10 4.4018698255406262e-10 0.0000000000000000e+00  -4.7688281852737848e-10 6.4188964722394096e-10 0.0000000000000000e+00  -5.0452079315642209e-10 9.3323172973210820e-10 0.0000000000000000e+00  -4.2389611248387303e-10 1.2676510625167403e-09 0.0000000000000000e+00  -6.5683176079498763e-11 1.2764226182147295e-09 0.0000000000000000e+00  7.3562137655616224e-13 -1.1883748610648900e-12 0.0000000000000000e+00  1.0013648446207986e-13 7.1229495879976820e-13 0.0000000000000000e+00  -2.9105380199836911e-10 -1.0098588344142341e-09 0.0000000000000000e+00  -5.5918006577690872e-10 -1.1474534347419520e-09 0.0000000000000000e+00  -6.9859676948524688e-10 -9.1124562545726574e-10 0.0000000000000000e+00  -7.8553103340192173e-10 -6.7483469000907618e-10 0.0000000000000000e+00  -8.0000754854322343e-10 -4.8201601767334288e-10 0.0000000000000000e+00  -7.8713449284768940e-10 -3.3720757947678189e-10 0.0000000000000000e+00  -7.6644276698967626e-10 -2.2710755725284351e-10 0.0000000000000000e+00  -7.4756676917848477e-10 -1.3968221405186735e-10 0.0000000000000000e+00  -7.3450876270885400e-10 -6.5812087730561277e-11 0.0000000000000000e+00  -7.2846285697015871e-10 1.6268445301634453e-12 0.0000000000000000e+00  -7.2948681134681277e-10 6.8699033212820566e-11 0.0000000000000000e+00  -7.3698279636492061e-10 1.4128261895510875e-10 0.0000000000000000e+00  -7.4948953107051744e-10 2.2588680112176382e-10 0.0000000000000000e+00  -7.6387754129050542e-10 3.3042024497189828e-10 0.0000000000000000e+00  -7.7360927595134493e-10 4.6455590751080940e-10 0.0000000000000000e+00  -7.6497610037422972e-10 6.3763853928574752e-10 0.0000000000000000e+00  -7.0912827573099303e-10 8.4674895603673503e-10 0.0000000000000000e+00  -5.5445434877987409e-10 1.0378425229466920e-09 0.0000000000000000e+00  -2.6674717147069745e-10 9.9949724157202348e-10 0.0000000000000000e+00  9.2659091114860406e-14 -8.9353854956403070e-13 0.0000000000000000e+00  7.9718293350336723e-14 5.6768068606804490e-13 0.0000000000000000e+00  -2.1132451732721408e-10 -7.7712159732742317e-10 0.0000000000000000e+00  -4.2937061026509124e-10 -9.0095099845382426e-10 0.0000000000000000e+00  -5.8661362863982829e-10 -7.8661283956065260e-10 0.0000000000000000e+00  -6.8508047943679107e-10 -6.2239928140479746e-10 0.0000000000000000e+00  -7.3594057678579528e-10 -4.7040601819909120e-10 0.0000000000000000e+00  -7.5557861458484655e-10 -3.4289846353654561e-10 0.0000000000000000e+00  -7.5949479312943443e-10 -2.3775446055127808e-10 0.0000000000000000e+00  -7.5712758089931286e-10 -1.4952409762372135e-10 0.0000000000000000e+00  -7.5342446927899394e-10 -7.2272521771167367e-11 0.0000000000000000e+00  -7.5071242111050105e-10 -5.5002025495373978e-13 0.0000000000000000e+00  -7.4964988634518365e-10 7.0653930846007596e-11 0.0000000000000000e+00  -7.4962267040706514e-10 1.4620089500529603e-10 0.0000000000000000e+00  -7.4864656571343934e-10 2.3107088677875050e-10 0.0000000000000000e+00  -7.4276926036660151e-10 3.3038350328598365e-10 0.0000000000000000e+00  -7.2488108092544443e-10 4.4866702014290618e-10 0.0000000000000000e+00  -6.8289261959082828e-10 5.8714386516476223e-10 0.0000000000000000e+00  -5.9835791895895414e-10 7.3646319490949240e-10 0.0000000000000000e+00  -4.5097135609512073e-10 8.5746350786691666e-10 0.0000000000000000e+00  -2.3803768630054760e-10 8.0387835042697296e-10 0.0000000000000000e+00  7.5839862383074814e-14 -7.1624750626019352e-13 0.0000000000000000e+00  6.4361056521839102e-14 4.5422775682407217e-13 0.0000000000000000e+00  -1.5801306835152394e-10 -6.1833982622402837e-10 0.0000000000000000e+00  -3.2610973822510626e-10 -7.2222035005036447e-10 0.0000000000000000e+00  -4.6476022167695143e-10 -6.5878335346049717e-10 0.0000000000000000e+00  -5.6321982679015274e-10 -5.4677691047509960e-10 0.0000000000000000e+00  -6.2688191963669636e-10 -4.3108730442814812e-10 0.0000000000000000e+00  -6.6377693464177057e-10 -3.2493262161279625e-10 0.0000000000000000e+00  -6.8342511814742817e-10 -2.3121462226188581e-10 0.0000000000000000e+00  -6.9278177457285035e-10 -1.4832340783680382e-10 0.0000000000000000e+00  -6.9630846494032009e-10 -7.3143001127928935e-11 0.0000000000000000e+00  -6.9640512012754562e-10 -2.1019339439112123e-12 0.0000000000000000e+00  -6.9388860279133043e-10 6.8422484824143355e-11 0.0000000000000000e+00  -6.8822709495673328e-10 1.4197078636653596e-10 0.0000000000000000e+00  -6.7749382485543456e-10 2.2188712060800398e-10 0.0000000000000000e+00  -6.5806606639428544e-10 3.1098458618432391e-10 0.0000000000000000e+00  -6.2416087818462004e-10 4.1067600763987058e-10 0.0000000000000000e+00  -5.6756526014819294e-10 5.1910222934212320e-10 0.0000000000000000e+00  -4.7861917924427250e-10 6.2719619799127315e-10 0.0000000000000000e+00  -3.5024402851278084e-10 7.0627093187224245e-10 0.0000000000000000e+00  -1.8463624192549270e-10 6.4594010798821829e-10 0.0000000000000000e+00  8.5947292208822347e-14 -5.5870161900700594e-13 0.0000000000000000e+00  5.1885847183014610e-14 3.6460324545615431e-13 0.0000000000000000e+00  -1.2346444060782571e-10 -4.9589505470577393e-10 0.0000000000000000e+00  -2.5679331019006239e-10 -5.8471919893236964e-10 0.0000000000000000e+00  -3.7357104102585747e-10 -5.4546006661689561e-10 0.0000000000000000e+00  -4.6486316638320638e-10 -4.6733662212675994e-10 0.0000000000000000e+00  -5.3079232096249410e-10 -3.7970615881925880e-10 0.0000000000000000e+00  -5.7535678827634920e-10 -2.9381727404227197e-10 0.0000000000000000e+00  -6.0368811618778327e-10 -2.1353286169477454e-10 0.0000000000000000e+00  -6.2040718338565023e-10 -1.3928864699665632e-10 0.0000000000000000e+00  -6.2883929050563246e-10 -6.9828227070321981e-11 0.0000000000000000e+00  -6.3096108539419957e-10 -3.1133194861129785e-12 0.0000000000000000e+00  -6.2751415471700573e-10 6.3174379856239546e-11 0.0000000000000000e+00  -6.1808940384033923e-10 1.3132715078499972e-10 0.0000000000000000e+00  -6.0112518877620298e-10 2.0332680113750476e-10 0.0000000000000000e+00  -5.7384080633932682e-10 2.8043440206316106e-10 0.0000000000000000e+00  -5.3223111882420087e-10 3.6251461442755974e-10 0.0000000000000000e+00  -4.7141414869125118e-10 4.4693117898043947e-10 0.0000000000000000e+00  -3.8680624489176383e-10 5.2625432992219971e-10 0.0000000000000000e+00  -2.7640866078729873e-10 5.7908832100102862e-10 0.0000000000000000e+00  -1.4332966059688200e-10 5.2044707881658487e-10 0.0000000000000000e+00  7.1511161769354081e-14 -4.4224262367616260e-13 0.0000000000000000e+00  4.2846154559755952e-14 2.9231462244909327e-13 0.0000000000000000e+00  -1.0027193937152256e-10 -3.9793497747230298e-10 0.0000000000000000e+00  -2.0931770150452131e-10 -4.7300467881684747e-10 0.0000000000000000e+00  -3.0823735365925605e-10 -4.4771572023812993e-10 0.0000000000000000e+00  -3.9024341370128038e-10 -3.9150459345024480e-10 0.0000000000000000e+00  -4.5387604433785557e-10 -3.2500773036079795e-10 0.0000000000000000e+00  -5.0056151764966444e-10 -2.5649283933968916e-10 0.0000000000000000e+00  -5.3290858753809243e-10 -1.8953699245607474e-10 0.0000000000000000e+00  -5.5366345233741688e-10 -1.2534207897387104e-10 0.0000000000000000e+00  -5.6503687392969186e-10 -6.3713009195880173e-11 0.0000000000000000e+00  -5.6845176131287731e-10 -3.6903526773392440e-12 0.0000000000000000e+00  -5.6447720176505199e-10 5.6022046009238712e-11 0.0000000000000000e+00  -5.5283180848492735e-10 1.1672713687408974e-10 0.0000000000000000e+00  -5.3240480170612456e-10 1.7942523965421841e-10 0.0000000000000000e+00  -5.0131362568742598e-10 2.4445552602412324e-10 0.0000000000000000e+00  -4.5708371002704019e-10 3.1104087836122382e-10 0.0000000000000000e+00  -3.9709830783384871e-10 3.7666065232882478e-10 0.0000000000000000e+00  -3.1946292294825832e-10 4.3559350945885567e-10 0.0000000000000000e+00  -2.2422955213892197e-10 4.7185065180719595e-10 0.0000000000000000e+00  -1.1456132785143242e-10 4.1940521314912686e-10 0.0000000000000000e+00  5.6326921473365153e-14 -3.5419318481209811e-13 0.0000000000000000e+00  3.6439583463767060e-14 2.3220526962741388e-13 0.0000000000000000e+00  -8.4107450370350121e-11 -3.1716264114539595e-10 0.0000000000000000e+00  -1.7581245118717033e-10 -3.7945394664611425e-10 0.0000000000000000e+00  -2.6090360330583901e-10 -3.6290724977718302e-10 0.0000000000000000e+00  -3.3412296100280981e-10 -3.2173110851837737e-10 0.0000000000000000e+00  -3.9367057480907319e-10 -2.7118435738331626e-10 0.0000000000000000e+00  -4.3964966092840220e-10 -2.1716269274366945e-10 0.0000000000000000e+00  -4.7318293102157430e-10 -1.6256150222564821e-10 0.0000000000000000e+00  -4.9572970590349230e-10 -1.0871039569818547e-10 0.0000000000000000e+00  -5.0861335704967768e-10 -5.5937889505705487e-11 0.0000000000000000e+00  -5.1275004620422205e-10 -3.9545961899410164e-12 0.0000000000000000e+00  -5.0852858956969374e-10 4.7828982896167319e-11 0.0000000000000000e+00  -4.9577807339600304e-10 1.0002368572388311e-10 0.0000000000000000e+00  -4.7379628240984010e-10 1.5299652233014315e-10 0.0000000000000000e+00  -4.4144821005610575e-10 2.0659839263714193e-10 0.0000000000000000e+00  -3.9737592685598078e-10 2.5987634534502116e-10 0.0000000000000000e+00  -3.4037421570341877e-10 3.1071805935636315e-10 0.0000000000000000e+00  -2.6995264702807417e-10 3.5486524899982606e-10 0.0000000000000000e+00  -1.8700428905647934e-10 3.8040015408158971e-10 0.0000000000000000e+00  -9.4447867647960789e-11 3.3592964138428505e-10 0.0000000000000000e+00  4.5806228619418890e-14 -2.8343526765925947e-13 0.0000000000000000e+00  3.1844205727504093e-14 1.8075199864104172e-13 0.0000000000000000e+00  -7.2602486752514405e-11 -2.4861028388920569e-10 0.0000000000000000e+00  -1.5173880866217364e-10 -2.9923113170083392e-10 0.0000000000000000e+00  -2.2625935846222349e-10 -2.8841298113003581e-10 0.0000000000000000e+00  -2.9198250821791239e-10 -2.5818651081670724e-10 0.0000000000000000e+00  -3.4711654684069224e-10 -2.2000441490989699e-10 0.0000000000000000e+00  -3.9114436303568046e-10 -1.7810137505361708e-10 0.0000000000000000e+00  -4.2432970570698791e-10 -1.3466986047246583e-10 0.0000000000000000e+00  -4.4730872209281003e-10 -9.0904348384755947e-11 0.0000000000000000e+00  -4.6076922002370880e-10 -4.7328141456666098e-11 0.0000000000000000e+00  -4.6523327859386641e-10 -4.0177718571077078e-12 0.0000000000000000e+00  -4.6093889511833377e-10 3.9182446563506624e-11 0.0000000000000000e+00  -4.4779996400238678e-10 8.2452545099602549e-11 0.0000000000000000e+00  -4.2543284848021344e-10 1.2579620554480064e-10 0.0000000000000000e+00  -3.9325219544446655e-10 1.6884995690958821e-10 0.0000000000000000e+00  -3.5064948661353868e-10 2.1070767631946319e-10 0.0000000000000000e+00  -2.9726467253945486e-10 2.4971787678741600e-10 0.0000000000000000e+00  -2.3333662148376890e-10 2.8279387718373852e-10 0.0000000000000000e+00  -1.6008201856295849e-10 3.0114614125321855e-10 0.0000000000000000e+00  -8.0121587335043325e-11 2.6515544779887853e-10 0.0000000000000000e+00  3.8568632031617179e-14 -2.2437125588782535e-13 0.0000000000000000e+00  2.8566285841060789e-14 1.3551428255001300e-13 0.0000000000000000e+00  -6.4409896698020100e-11 -1.8882953355736411e-10 0.0000000000000000e+00  -1.3443449422946126e-10 -2.2883712045816769e-10 0.0000000000000000e+00  -2.0099876716520753e-10 -2.2198446812204586e-10 0.0000000000000000e+00  -2.6067718019839655e-10 -2.0016942711900948e-10 0.0000000000000000e+00  -3.1178411400000105e-10 -1.7194432205647416e-10 0.0000000000000000e+00  -3.5351967585486044e-10 -1.4035302007490885e-10 0.0000000000000000e+00  -3.8566863764251945e-10 -1.0699553116114551e-10 0.0000000000000000e+00  -4.0835993457236463e-10 -7.2838309227025655e-11 0.0000000000000000e+00  -4.2185788560253725e-10 -3.8417725622373601e-11 0.0000000000000000e+00  -4.2640539579679903e-10 -3.9698056178137516e-12 0.0000000000000000e+00  -4.2212841869029967e-10 3.0433726728822237e-11 0.0000000000000000e+00  -4.0900051439945473e-10 6.4742761690031442e-11 0.0000000000000000e+00  -3.8686417185271930e-10 9.8789100781485876e-11 0.0000000000000000e+00  -3.5550833563645450e-10 1.3216027061563145e-10 0.0000000000000000e+00  -3.1480223416803106e-10 1.6409577111239630e-10 0.0000000000000000e+00  -2.6487943350662320e-10 1.9337285991349066e-10 0.0000000000000000e+00  -2.0635351312640981e-10 2.1782993853284438e-10 0.0000000000000000e+00  -1.4054459620776676e-10 2.3116787571971231e-10 0.0000000000000000e+00  -6.9822865326581107e-11 2.0363705866945813e-10 0.0000000000000000e+00  3.3383057793464935e-14 -1.7368965498551544e-13 0.0000000000000000e+00  2.6324419227329008e-14 9.4674981508716854e-14 0.0000000000000000e+00  -5.8733218419601412e-11 -1.3529740742431193e-10 0.0000000000000000e+00  -1.2229815212984326e-10 -1.6559435383561159e-10 0.0000000000000000e+00  -1.8306036072011016e-10 -1.6167794072797635e-10 0.0000000000000000e+00  -2.3812349896208632e-10 -1.4667517777272672e-10 0.0000000000000000e+00  -2.8592101689420251e-10 -1.2680773408945808e-10 0.0000000000000000e+00  -3.2553125716025798e-10 -1.0422279996459696e-10 0.0000000000000000e+00  -3.5647974689157237e-10 -8.0042675396660816e-11 0.0000000000000000e+00  -3.7859445524499097e-10 -5.4986832075479606e-11 0.0000000000000000e+00  -3.9187259710173239e-10 -2.9509972973492746e-11 0.0000000000000000e+00  -3.9637256107413810e-10 -3.8766019079359330e-12 0.0000000000000000e+00  -3.9214344199633302e-10 2.1757011983216753e-11 0.0000000000000000e+00  -3.7919756139510450e-10 4.7251778285053312e-11 0.0000000000000000e+00  -3.5752663655595972e-10 7.2395333312583105e-11 0.0000000000000000e+00  -3.2715978964475450e-10 9.6823180625599291e-11 0.0000000000000000e+00  -2.8825845694760693e-10 1.1996020962734148e-10 0.0000000000000000e+00  -2.4123793472027765e-10 1.4096161250350313e-10 0.0000000000000000e+00  -1.8690114474238318e-10 1.5841001357318310e-10 0.0000000000000000e+00  -1.2658586063396111e-10 1.6807905091400587e-10 0.0000000000000000e+00  -6.2487920501949297e-11 1.4881304357570443e-10 0.0000000000000000e+00  2.9651175484890775e-14 -1.2903555637128168e-13 0.0000000000000000e+00  2.4951067511418447e-14 5.6784405637749444e-14 0.0000000000000000e+00  -5.5096788318963296e-11 -8.6046481507114688e-11 0.0000000000000000e+00  -1.1435916578475358e-10 -1.0734906319915790e-10 0.0000000000000000e+00  -1.7116076718113494e-10 -1.0578409263676117e-10 0.0000000000000000e+00  -2.2297067082680059e-10 -9.6604078908657977e-11 0.0000000000000000e+00  -2.6832344176956167e-10 -8.4059873572330960e-11 0.0000000000000000e+00  -3.0625230841273460e