<?xml version="1.0"?>
<VTKFile type="UnstructuredGrid"  version="0.1"  >
<UnstructuredGrid>
<Piece  NumberOfPoints="651" NumberOfCells="1200">
<Points>
<DataArray  type="Float64"  NumberOfComponents="3"  format="ascii">0 0 0  50000 0 0  100000 0 0  150000 0 0  200000 0 0  250000 0 0  300000 0 0  350000 0 0  400000 0 0  450000 0 0  500000 0 0  550000 0 0  600000 0 0  650000 0 0  700000 0 0  750000 0 0  800000 0 0  850000 0 0  900000 0 0  950000 0 0  1000000 0 0  0 50000 0  50000 50000 0  100000 50000 0  150000 50000 0  200000 50000 0  250000 50000 0  300000 50000 0  350000 50000 0  400000 50000 0  450000 50000 0  500000 50000 0  550000 50000 0  600000 50000 0  650000 50000 0  700000 50000 0  750000 50000 0  800000 50000 0  850000 50000 0  900000 50000 0  950000 50000 0  1000000 50000 0  0 100000 0  50000 100000 0  100000 100000 0  150000 100000 0  200000 100000 0  250000 100000 0  300000 100000 0  350000 100000 0  400000 100000 0  450000 100000 0  500000 100000 0  550000 100000 0  600000 100000 0  650000 100000 0  700000 100000 0  750000 100000 0  800000 100000 0  850000 100000 0  900000 100000 0  950000 100000 0  1000000 100000 0  0 150000 0  50000 150000 0  100000 150000 0  150000 150000 0  200000 150000 0  250000 150000 0  300000 150000 0  350000 150000 0  400000 150000 0  450000 150000 0  500000 150000 0  550000 150000 0  600000 150000 0  650000 150000 0  700000 150000 0  750000 150000 0  800000 150000 0  850000 150000 0  900000 150000 0  950000 150000 0  1000000 150000 0  0 200000 0  50000 200000 0  100000 200000 0  150000 200000 0  200000 200000 0  250000 200000 0  300000 200000 0  350000 200000 0  400000 200000 0  450000 200000 0  500000 200000 0  550000 200000 0  600000 200000 0  650000 200000 0  700000 200000 0  750000 200000 0  800000 200000 0  850000 200000 0  900000 200000 0  950000 200000 0  1000000 200000 0  0 250000 0  50000 250000 0  100000 250000 0  150000 250000 0  200000 250000 0  250000 250000 0  300000 250000 0  350000 250000 0  400000 250000 0  450000 250000 0  500000 250000 0  550000 250000 0  600000 250000 0  650000 250000 0  700000 250000 0  750000 250000 0  800000 250000 0  850000 250000 0  900000 250000 0  950000 250000 0  1000000 250000 0  0 300000 0  50000 300000 0  100000 300000 0  150000 300000 0  200000 300000 0  250000 300000 0  300000 300000 0  350000 300000 0  400000 300000 0  450000 300000 0  500000 300000 0  550000 300000 0  600000 300000 0  650000 300000 0  700000 300000 0  750000 300000 0  800000 300000 0  850000 300000 0  900000 300000 0  950000 300000 0  1000000 300000 0  0 350000 0  50000 350000 0  100000 350000 0  150000 350000 0  200000 350000 0  250000 350000 0  300000 350000 0  350000 350000 0  400000 350000 0  450000 350000 0  500000 350000 0  550000 350000 0  600000 350000 0  650000 350000 0  700000 350000 0  750000 350000 0  800000 350000 0  850000 350000 0  900000 350000 0  950000 350000 0  1000000 350000 0  0 400000 0  50000 400000 0  100000 400000 0  150000 400000 0  200000 400000 0  250000 400000 0  300000 400000 0  350000 400000 0  400000 400000 0  450000 400000 0  500000 400000 0  550000 400000 0  600000 400000 0  650000 400000 0  700000 400000 0  750000 400000 0  800000 400000 0  850000 400000 0  900000 400000 0  950000 400000 0  1000000 400000 0  0 450000 0  50000 450000 0  100000 450000 0  150000 450000 0  200000 450000 0  250000 450000 0  300000 450000 0  350000 450000 0  400000 450000 0  450000 450000 0  500000 450000 0  550000 450000 0  600000 450000 0  650000 450000 0  700000 450000 0  750000 450000 0  800000 450000 0  850000 450000 0  900000 450000 0  950000 450000 0  1000000 450000 0  0 500000 0  50000 500000 0  100000 500000 0  150000 500000 0  200000 500000 0  250000 500000 0  300000 500000 0  350000 500000 0  400000 500000 0  450000 500000 0  500000 500000 0  550000 500000 0  600000 500000 0  650000 500000 0  700000 500000 0  750000 500000 0  800000 500000 0  850000 500000 0  900000 500000 0  950000 500000 0  1000000 500000 0  0 550000 0  50000 550000 0  100000 550000 0  150000 550000 0  200000 550000 0  250000 550000 0  300000 550000 0  350000 550000 0  400000 550000 0  450000 550000 0  500000 550000 0  550000 550000 0  600000 550000 0  650000 550000 0  700000 550000 0  750000 550000 0  800000 550000 0  850000 550000 0  900000 550000 0  950000 550000 0  1000000 550000 0  0 600000 0  50000 600000 0  100000 600000 0  150000 600000 0  200000 600000 0  250000 600000 0  300000 600000 0  350000 600000 0  400000 600000 0  450000 600000 0  500000 600000 0  550000 600000 0  600000 600000 0  650000 600000 0  700000 600000 0  750000 600000 0  800000 600000 0  850000 600000 0  900000 600000 0  950000 600000 0  1000000 600000 0  0 650000 0  50000 650000 0  100000 650000 0  150000 650000 0  200000 650000 0  250000 650000 0  300000 650000 0  350000 650000 0  400000 650000 0  450000 650000 0  500000 650000 0  550000 650000 0  600000 650000 0  650000 650000 0  700000 650000 0  750000 650000 0  800000 650000 0  850000 650000 0  900000 650000 0  950000 650000 0  1000000 650000 0  0 700000 0  50000 700000 0  100000 700000 0  150000 700000 0  200000 700000 0  250000 700000 0  300000 700000 0  350000 700000 0  400000 700000 0  450000 700000 0  500000 700000 0  550000 700000 0  600000 700000 0  650000 700000 0  700000 700000 0  750000 700000 0  800000 700000 0  850000 700000 0  900000 700000 0  950000 700000 0  1000000 700000 0  0 750000 0  50000 750000 0  100000 750000 0  150000 750000 0  200000 750000 0  250000 750000 0  300000 750000 0  350000 750000 0  400000 750000 0  450000 750000 0  500000 750000 0  550000 750000 0  600000 750000 0  650000 750000 0  700000 750000 0  750000 750000 0  800000 750000 0  850000 750000 0  900000 750000 0  950000 750000 0  1000000 750000 0  0 800000 0  50000 800000 0  100000 800000 0  150000 800000 0  200000 800000 0  250000 800000 0  300000 800000 0  350000 800000 0  400000 800000 0  450000 800000 0  500000 800000 0  550000 800000 0  600000 800000 0  650000 800000 0  700000 800000 0  750000 800000 0  800000 800000 0  850000 800000 0  900000 800000 0  950000 800000 0  1000000 800000 0  0 850000 0  50000 850000 0  100000 850000 0  150000 850000 0  200000 850000 0  250000 850000 0  300000 850000 0  350000 850000 0  400000 850000 0  450000 850000 0  500000 850000 0  550000 850000 0  600000 850000 0  650000 850000 0  700000 850000 0  750000 850000 0  800000 850000 0  850000 850000 0  900000 850000 0  950000 850000 0  1000000 850000 0  0 900000 0  50000 900000 0  100000 900000 0  150000 900000 0  200000 900000 0  250000 900000 0  300000 900000 0  350000 900000 0  400000 900000 0  450000 900000 0  500000 900000 0  550000 900000 0  600000 900000 0  650000 900000 0  700000 900000 0  750000 900000 0  800000 900000 0  850000 900000 0  900000 900000 0  950000 900000 0  1000000 900000 0  0 950000 0  50000 950000 0  100000 950000 0  150000 950000 0  200000 950000 0  250000 950000 0  300000 950000 0  350000 950000 0  400000 950000 0  450000 950000 0  500000 950000 0  550000 950000 0  600000 950000 0  650000 950000 0  700000 950000 0  750000 950000 0  800000 950000 0  850000 950000 0  900000 950000 0  950000 950000 0  1000000 950000 0  0 1000000 0  50000 1000000 0  100000 1000000 0  150000 1000000 0  200000 1000000 0  250000 1000000 0  300000 1000000 0  350000 1000000 0  400000 1000000 0  450000 1000000 0  500000 1000000 0  550000 1000000 0  600000 1000000 0  650000 1000000 0  700000 1000000 0  750000 1000000 0  800000 1000000 0  850000 1000000 0  900000 1000000 0  950000 1000000 0  1000000 1000000 0  0 1050000 0  50000 1050000 0  100000 1050000 0  150000 1050000 0  200000 1050000 0  250000 1050000 0  300000 1050000 0  350000 1050000 0  400000 1050000 0  450000 1050000 0  500000 1050000 0  550000 1050000 0  600000 1050000 0  650000 1050000 0  700000 1050000 0  750000 1050000 0  800000 1050000 0  850000 1050000 0  900000 1050000 0  950000 1050000 0  1000000 1050000 0  0 1100000 0  50000 1100000 0  100000 1100000 0  150000 1100000 0  200000 1100000 0  250000 1100000 0  300000 1100000 0  350000 1100000 0  400000 1100000 0  450000 1100000 0  500000 1100000 0  550000 1100000 0  600000 1100000 0  650000 1100000 0  700000 1100000 0  750000 1100000 0  800000 1100000 0  850000 1100000 0  900000 1100000 0  950000 1100000 0  1000000 1100000 0  0 1150000 0  50000 1150000 0  100000 1150000 0  150000 1150000 0  200000 1150000 0  250000 1150000 0  300000 1150000 0  350000 1150000 0  400000 1150000 0  450000 1150000 0  500000 1150000 0  550000 1150000 0  600000 1150000 0  650000 1150000 0  700000 1150000 0  750000 1150000 0  800000 1150000 0  850000 1150000 0  900000 1150000 0  950000 1150000 0  1000000 1150000 0  0 1200000 0  50000 1200000 0  100000 1200000 0  150000 1200000 0  200000 1200000 0  250000 1200000 0  300000 1200000 0  350000 1200000 0  400000 1200000 0  450000 1200000 0  500000 1200000 0  550000 1200000 0  600000 1200000 0  650000 1200000 0  700000 1200000 0  750000 1200000 0  800000 1200000 0  850000 1200000 0  900000 1200000 0  950000 1200000 0  1000000 1200000 0  0 1250000 0  50000 1250000 0  100000 1250000 0  150000 1250000 0  200000 1250000 0  250000 1250000 0  300000 1250000 0  350000 1250000 0  400000 1250000 0  450000 1250000 0  500000 1250000 0  550000 1250000 0  600000 1250000 0  650000 1250000 0  700000 1250000 0  750000 1250000 0  800000 1250000 0  850000 1250000 0  900000 1250000 0  950000 1250000 0  1000000 1250000 0  0 1300000 0  50000 1300000 0  100000 1300000 0  150000 1300000 0  200000 1300000 0  250000 1300000 0  300000 1300000 0  350000 1300000 0  400000 1300000 0  450000 1300000 0  500000 1300000 0  550000 1300000 0  600000 1300000 0  650000 1300000 0  700000 1300000 0  750000 1300000 0  800000 1300000 0  850000 1300000 0  900000 1300000 0  950000 1300000 0  1000000 1300000 0  0 1350000 0  50000 1350000 0  100000 1350000 0  150000 1350000 0  200000 1350000 0  250000 1350000 0  300000 1350000 0  350000 1350000 0  400000 1350000 0  450000 1350000 0  500000 1350000 0  550000 1350000 0  600000 1350000 0  650000 1350000 0  700000 135
[...]
<PointData  Vectors="f_5995"> 
<DataArray  type="Float64"  Name="f_5995"  NumberOfComponents="3" format="ascii">1.8523409271082947e-12 3.3284590517106277e-12 0.0000000000000000e+00  8.0002177251448663e-08 2.3526460472605525e-12 0.0000000000000000e+00  8.0001655055746133e-08 9.2263841990199773e-13 0.0000000000000000e+00  8.0001099865288801e-08 2.4576181757117599e-13 0.0000000000000000e+00  8.0000901980147220e-08 9.0539414474443368e-14 0.0000000000000000e+00  8.0000784094391274e-08 6.0497632085041040e-14 0.0000000000000000e+00  8.0000702186207892e-08 4.3629289369183724e-14 0.0000000000000000e+00  8.0000648358448895e-08 2.9193276525868055e-14 0.0000000000000000e+00  8.0000615723040078e-08 1.7485329036623251e-14 0.0000000000000000e+00  8.0000599606268402e-08 7.5640086365331637e-15 0.0000000000000000e+00  8.0000597778834351e-08 -1.8202353459119439e-15 0.0000000000000000e+00  8.0000609935050206e-08 -1.1858627846629130e-14 0.0000000000000000e+00  8.0000637544973768e-08 -2.3969521692640012e-14 0.0000000000000000e+00  8.0000684394062446e-08 -4.0133137851590088e-14 0.0000000000000000e+00  8.0000758706340495e-08 -6.1260166387338900e-14 0.0000000000000000e+00  8.0000875723426699e-08 -7.7765015230268020e-14 0.0000000000000000e+00  8.0001046328062251e-08 -7.4269326002415849e-14 0.0000000000000000e+00  8.0001323235936312e-08 -2.6758201185785688e-13 0.0000000000000000e+00  8.0002323587285977e-08 -1.6481323063464399e-12 0.0000000000000000e+00  8.0001040271790085e-08 -1.2799367321109119e-12 0.0000000000000000e+00  2.0502489810425544e-13 -1.0080192271688645e-12 0.0000000000000000e+00  1.3214618512258546e-12 2.6334746686362467e-12 0.0000000000000000e+00  1.1990132272939444e-08 -1.1453702283172131e-09 0.0000000000000000e+00  1.3858822207084567e-08 -9.0429683031803276e-10 0.0000000000000000e+00  1.5511571465726232e-08 -4.0153379245825550e-10 0.0000000000000000e+00  1.6086711406317444e-08 -2.3965237144828216e-10 0.0000000000000000e+00  1.6298138459217684e-08 -1.4840381945415624e-10 0.0000000000000000e+00  1.6414980441072395e-08 -8.9062541938163048e-11 0.0000000000000000e+00  1.6490440743866001e-08 -4.9602413457333438e-11 0.0000000000000000e+00  1.6537724484045256e-08 -2.1181264322669403e-11 0.0000000000000000e+00  1.6563380355000825e-08 1.6693540193427794e-12 0.0000000000000000e+00  1.6570892304126603e-08 2.2422116518281485e-11 0.0000000000000000e+00  1.6561390479749278e-08 4.3808471499982314e-11 0.0000000000000000e+00  1.6533956729200924e-08 6.8689505809940556e-11 0.0000000000000000e+00  1.6485478745001673e-08 1.0094765454894298e-10 0.0000000000000000e+00  1.6410212654419128e-08 1.4670399296687252e-10 0.0000000000000000e+00  1.6300531513707474e-08 2.1542020892244851e-10 0.0000000000000000e+00  1.6149892090343473e-08 3.2227388816369101e-10 0.0000000000000000e+00  1.5904718796289409e-08 5.4375324827612914e-10 0.0000000000000000e+00  1.5026489246669972e-08 1.4092931099839208e-09 0.0000000000000000e+00  1.1483801021405259e-08 4.0267736012694295e-09 0.0000000000000000e+00  8.4895686039842927e-13 -1.4608180213459306e-12 0.0000000000000000e+00  4.4564715622369375e-13 1.3341450710637347e-12 0.0000000000000000e+00  3.2884274045154169e-10 -2.6242546651600238e-09 0.0000000000000000e+00  1.9085366768728700e-09 -1.2880294543913976e-09 0.0000000000000000e+00  1.6276007252096633e-09 -8.0975973644614638e-10 0.0000000000000000e+00  1.8586094042781381e-09 -5.1513353494326925e-10 0.0000000000000000e+00  2.0698814910122090e-09 -3.2871412057681708e-10 0.0000000000000000e+00  2.1986941908407946e-09 -2.1162467973457160e-10 0.0000000000000000e+00  2.2797646399762723e-09 -1.3318562329845583e-10 0.0000000000000000e+00  2.3312839186382071e-09 -7.6039360316757502e-11 0.0000000000000000e+00  2.3605514599726372e-09 -3.0116091601835993e-11 0.0000000000000000e+00  2.3709649894242678e-09 1.1109586910342973e-11 0.0000000000000000e+00  2.3638700053377535e-09 5.2731665778502830e-11 0.0000000000000000e+00  2.3390137871346578e-09 9.9837128015533958e-11 0.0000000000000000e+00  2.2947229992017751e-09 1.5886239013153666e-10 0.0000000000000000e+00  2.2281912081917052e-09 2.3947922948517273e-10 0.0000000000000000e+00  2.1362444496720570e-09 3.5835403616551955e-10 0.0000000000000000e+00  2.0140822029189492e-09 5.5070259238140307e-10 0.0000000000000000e+00  1.8381821948234980e-09 9.0500246252336489e-10 0.0000000000000000e+00  1.5580993334236184e-09 1.5594644070517917e-09 0.0000000000000000e+00  1.3808822405821903e-09 2.0558695441163893e-09 0.0000000000000000e+00  1.3123194936580625e-12 -2.3315362256457427e-12 0.0000000000000000e+00  1.6438489775890759e-13 9.1292774660320598e-13 0.0000000000000000e+00  -3.6714315685672370e-10 -1.5038903013682746e-09 0.0000000000000000e+00  -4.3155863524945190e-10 -1.4113338698231649e-09 0.0000000000000000e+00  -5.2796503845305068e-10 -9.8533699921714066e-10 0.0000000000000000e+00  -5.4077776378969904e-10 -6.5438465082714856e-10 0.0000000000000000e+00  -4.8736600057153622e-10 -4.4149145972196162e-10 0.0000000000000000e+00  -4.1966914719194195e-10 -2.9645074542516464e-10 0.0000000000000000e+00  -3.6508907194321168e-10 -1.9357926306448414e-10 0.0000000000000000e+00  -3.2718739683106475e-10 -1.1593345806266299e-10 0.0000000000000000e+00  -3.0440080353953371e-10 -5.2330331779779324e-11 0.0000000000000000e+00  -2.9530910441828082e-10 5.0018388461879557e-12 0.0000000000000000e+00  -2.9911505445500993e-10 6.2300018512883792e-11 0.0000000000000000e+00  -3.1548898518880639e-10 1.2565684941356861e-10 0.0000000000000000e+00  -3.4424303179047250e-10 2.0231625247381390e-10 0.0000000000000000e+00  -3.8462009278930421e-10 3.0232146349262904e-10 0.0000000000000000e+00  -4.3385685948477423e-10 4.4113109478851931e-10 0.0000000000000000e+00  -4.8416721114984668e-10 6.4306763895493843e-10 0.0000000000000000e+00  -5.1145890269923393e-10 9.3475342818063142e-10 0.0000000000000000e+00  -4.2984042573891818e-10 1.2700277529558380e-09 0.0000000000000000e+00  -6.9712419577069492e-11 1.2803353237321618e-09 0.0000000000000000e+00  1.7240985623216216e-13 -1.2307730809081262e-12 0.0000000000000000e+00  1.0059292552000105e-13 7.1036839181523466e-13 0.0000000000000000e+00  -2.9161008673175158e-10 -1.0122918918153355e-09 0.0000000000000000e+00  -5.6090366526457102e-10 -1.1488667984758265e-09 0.0000000000000000e+00  -7.0118889677219401e-10 -9.1249818744373336e-10 0.0000000000000000e+00  -7.8811685009509412e-10 -6.7570666167171676e-10 0.0000000000000000e+00  -8.0264090649939135e-10 -4.8262123297894005e-10 0.0000000000000000e+00  -7.8976333439261858e-10 -3.3761496543472423e-10 0.0000000000000000e+00  -7.6905682755932251e-10 -2.2736332354394566e-10 0.0000000000000000e+00  -7.5017345458640607e-10 -1.3981601959343987e-10 0.0000000000000000e+00  -7.3711315092973366e-10 -6.5841367804428877e-11 0.0000000000000000e+00  -7.3107169351259551e-10 1.6938681356968560e-12 0.0000000000000000e+00  -7.3210929039663663e-10 6.8862444831877794e-11 0.0000000000000000e+00  -7.3962848721736861e-10 1.4155090703689937e-10 0.0000000000000000e+00  -7.5216486404883037e-10 2.2627780553367458e-10 0.0000000000000000e+00  -7.6657845200949196e-10 3.3096285541893096e-10 0.0000000000000000e+00  -7.7630531102888961e-10 4.6529374157286963e-10 0.0000000000000000e+00  -7.6758690701936491e-10 6.3864633140966926e-10 0.0000000000000000e+00  -7.1152750272849801e-10 8.4819854473476584e-10 0.0000000000000000e+00  -5.5656148102834532e-10 1.0401119743463632e-09 0.0000000000000000e+00  -2.6847743837550316e-10 1.0026706732926233e-09 0.0000000000000000e+00  5.7597860096958322e-14 -9.0873914666578059e-13 0.0000000000000000e+00  7.9770662766347034e-14 5.6515267443146964e-13 0.0000000000000000e+00  -2.1158170766442147e-10 -7.7921800370074879e-10 0.0000000000000000e+00  -4.3014613364332754e-10 -9.0243599139371099e-10 0.0000000000000000e+00  -5.8779661121084308e-10 -7.8770902424224265e-10 0.0000000000000000e+00  -6.8641615381437207e-10 -6.2324958594379633e-10 0.0000000000000000e+00  -7.3734247190019548e-10 -4.7104545277777821e-10 0.0000000000000000e+00  -7.5700702182107557e-10 -3.4336369663640557e-10 0.0000000000000000e+00  -7.6093876204788653e-10 -2.3807639307099009e-10 0.0000000000000000e+00  -7.5857907128402810e-10 -1.4972370363591890e-10 0.0000000000000000e+00  -7.5488140718860568e-10 -7.2363054140958971e-11 0.0000000000000000e+00  -7.5217537481242651e-10 -5.3763096715396829e-13 0.0000000000000000e+00  -7.5111986031177987e-10 7.0769961610911012e-11 0.0000000000000000e+00  -7.5109913668502594e-10 1.4642837435684738e-10 0.0000000000000000e+00  -7.5012411445790307e-10 2.3142540149762493e-10 0.0000000000000000e+00  -7.4423212727500505e-10 3.3088982976498393e-10 0.0000000000000000e+00  -7.2629601137235579e-10 4.4936267216987051e-10 0.0000000000000000e+00  -6.8420581412985059e-10 5.8808932814531744e-10 0.0000000000000000e+00  -5.9950981286663971e-10 7.3776423672780431e-10 0.0000000000000000e+00  -4.5192702749607415e-10 8.5927835210359303e-10 0.0000000000000000e+00  -2.3873765823147199e-10 8.0613580809559564e-10 0.0000000000000000e+00  9.4403767866178353e-14 -7.0362795131195220e-13 0.0000000000000000e+00  6.3973098524312477e-14 4.5187489954347776e-13 0.0000000000000000e+00  -1.5818120084205219e-10 -6.1997608137169394e-10 0.0000000000000000e+00  -3.2662143834755117e-10 -7.2354563550678641e-10 0.0000000000000000e+00  -4.6551380135936261e-10 -6.5975497178121344e-10 0.0000000000000000e+00  -5.6413286244388198e-10 -5.4754692544649368e-10 0.0000000000000000e+00  -6.2787668461900653e-10 -4.3168568078546328e-10 0.0000000000000000e+00  -6.6482508853473641e-10 -3.2538375272992306e-10 0.0000000000000000e+00  -6.8450477909767702e-10 -2.3153573427281085e-10 0.0000000000000000e+00  -6.9388099934958788e-10 -1.4852827655547889e-10 0.0000000000000000e+00  -6.9741964601543992e-10 -7.3240842436915965e-11 0.0000000000000000e+00  -6.9752273092684507e-10 -2.0969304743859055e-12 0.0000000000000000e+00  -6.9500745907867974e-10 6.8531370902380969e-11 0.0000000000000000e+00  -6.8934016696214844e-10 1.4219005475222946e-10 0.0000000000000000e+00  -6.7858957011342422e-10 2.2222906903922766e-10 0.0000000000000000e+00  -6.5912527346004749e-10 3.1146783641654027e-10 0.0000000000000000e+00  -6.2515404322954468e-10 4.1132650878784336e-10 0.0000000000000000e+00  -5.6845327056032121e-10 5.1995531553540294e-10 0.0000000000000000e+00  -4.7936004298502533e-10 6.2830054908569758e-10 0.0000000000000000e+00  -3.5080271491713001e-10 7.0769183602794290e-10 0.0000000000000000e+00  -1.8497921297759764e-10 6.4761806187709007e-10 0.0000000000000000e+00  8.8043077813397361e-14 -5.5039534128115021e-13 0.0000000000000000e+00  5.1584405023152640e-14 3.6279513386452010e-13 0.0000000000000000e+00  -1.2359334519509321e-10 -4.9718458438005262e-10 0.0000000000000000e+00  -2.5718078312144183e-10 -5.8581569428957149e-10 0.0000000000000000e+00  -3.7414775521496374e-10 -5.4630467663354926e-10 0.0000000000000000e+00  -4.6557584524775513e-10 -4.6800989529194489e-10 0.0000000000000000e+00  -5.3159746704074317e-10 -3.8024195397383504e-10 0.0000000000000000e+00  -5.7622482420870981e-10 -2.9422887085413580e-10 0.0000000000000000e+00  -6.0459854522934554e-10 -2.1383032510964936e-10 0.0000000000000000e+00  -6.2134509852903994e-10 -1.3948022899991065e-10 0.0000000000000000e+00  -6.2979329822131278e-10 -6.9919627271352736e-11 0.0000000000000000e+00  -6.3192168687940759e-10 -3.1070720697788751e-12 0.0000000000000000e+00  -6.2847199325108324e-10 6.3279353932436303e-11 0.0000000000000000e+00  -6.1903355669399982e-10 1.3153572910591040e-10 0.0000000000000000e+00  -6.0204135156135794e-10 2.0364763058746698e-10 0.0000000000000000e+00  -5.7470958283769300e-10 2.8087957909336441e-10 0.0000000000000000e+00  -5.3302707922795634e-10 3.6309890997889663e-10 0.0000000000000000e+00  -4.7210663373868040e-10 4.4767099983331243e-10 0.0000000000000000e+00  -3.8736273627921959e-10 5.2716956951209330e-10 0.0000000000000000e+00  -2.7680254864765193e-10 5.8021462640863878e-10 0.0000000000000000e+00  -1.4355079117818203e-10 5.2175004885282643e-10 0.0000000000000000e+00  6.9909442683268757e-14 -4.3835867324723988e-13 0.0000000000000000e+00  4.2649127176218134e-14 2.9090782013372097e-13 0.0000000000000000e+00  -1.0037660621120214e-10 -3.9896211433825892e-10 0.0000000000000000e+00  -2.0962866928697362e-10 -4.7389409221924796e-10 0.0000000000000000e+00  -3.0870692412769065e-10 -4.4842550750045502e-10 0.0000000000000000e+00  -3.9083378258788663e-10 -3.9207991233883831e-10 0.0000000000000000e+00  -4.5455762935739985e-10 -3.2547222554561738e-10 0.0000000000000000e+00  -5.0130976837173902e-10 -2.5685441892541209e-10 0.0000000000000000e+00  -5.3370438876885306e-10 -1.8980095324939331e-10 0.0000000000000000e+00  -5.5449103448073217e-10 -1.2551274770869506e-10 0.0000000000000000e+00  -5.6588300921187005e-10 -6.3793544572450599e-11 0.0000000000000000e+00  -5.6930451280742620e-10 -3.6820626569859818e-12 0.0000000000000000e+00  -5.6532473285505136e-10 5.6120106244140954e-11 0.0000000000000000e+00  -5.5366116154730785e-10 1.1691825433564995e-10 0.0000000000000000e+00  -5.3320073947209981e-10 1.7971477765455234e-10 0.0000000000000000e+00  -5.0205773801138469e-10 2.4485018831699657e-10 0.0000000000000000e+00  -4.5775412189048081e-10 3.1154740703958171e-10 0.0000000000000000e+00  -3.9767041024450704e-10 3.7728461182275744e-10 0.0000000000000000e+00  -3.1991191203269856e-10 4.3634235004538863e-10 0.0000000000000000e+00  -2.2453762598437450e-10 4.7274922516598072e-10 0.0000000000000000e+00  -1.1472864741388195e-10 4.2043452610363622e-10 0.0000000000000000e+00  5.5496272327561799e-14 -3.5176643708606445e-13 0.0000000000000000e+00  3.6274814936034738e-14 2.3108621088378159e-13 0.0000000000000000e+00  -8.4195743462073245e-11 -3.1797915787696222e-10 0.0000000000000000e+00  -1.7607086657522268e-10 -3.8016803659213571e-10 0.0000000000000000e+00  -2.6129796929988655e-10 -3.6348824763717902e-10 0.0000000000000000e+00  -3.3462614566383597e-10 -3.2221014444615196e-10 0.0000000000000000e+00  -3.9426012430655307e-10 -2.7157531906189400e-10 0.0000000000000000e+00  -4.4030573048578400e-10 -2.1747000401368371e-10 0.0000000000000000e+00  -4.7388806270649955e-10 -1.6278729844215507e-10 0.0000000000000000e+00  -4.9646847327527514e-10 -1.0885654958722092e-10 0.0000000000000000e+00  -5.0937181062553359e-10 -5.6005833054803263e-11 0.0000000000000000e+00  -5.1351505463017085e-10 -3.9448387583102640e-12 0.0000000000000000e+00  -5.0928707138727214e-10 4.7917162127973595e-11 0.0000000000000000e+00  -4.9651621784691077e-10 1.0019224752353889e-10 0.0000000000000000e+00  -4.7449887311760278e-10 1.5324831190770528e-10 0.0000000000000000e+00  -4.4209819818008545e-10 2.0693635358274157e-10 0.0000000000000000e+00  -3.9795444679186931e-10 2.6030235801545851e-10 0.0000000000000000e+00  -3.4086130426516611e-10 3.1123228048889894e-10 0.0000000000000000e+00  -2.7032938097931610e-10 3.5546984733243679e-10 0.0000000000000000e+00  -1.8725868215155369e-10 3.8111410754774981e-10 0.0000000000000000e+00  -9.4583082245092213e-11 3.3674266674018416e-10 0.0000000000000000e+00  4.5443937259378789e-14 -2.8163172383599978e-13 0.0000000000000000e+00  3.1692528625622235e-14 1.7987849131075850e-13 0.0000000000000000e+00  -7.2679699767809972e-11 -2.4925070088116465e-10 0.0000000000000000e+00  -1.5195972725024389e-10 -2.9979497774693983e-10 0.0000000000000000e+00  -2.2659882434573339e-10 -2.8887661695736964e-10 0.0000000000000000e+00  -2.9242037129072855e-10 -2.5857332389088293e-10 0.0000000000000000e+00  -3.4763522916162691e-10 -2.2032285893022892e-10 0.0000000000000000e+00  -3.9172732646198200e-10 -1.7835331300060992e-10 0.0000000000000000e+00  -4.2496130911734322e-10 -1.3485565282530502e-10 0.0000000000000000e+00  -4.4797426156369464e-10 -9.1024401211819190e-11 0.0000000000000000e+00  -4.6145473748605410e-10 -4.7382847290825121e-11 0.0000000000000000e+00  -4.6592524373084787e-10 -4.0071889083160726e-12 0.0000000000000000e+00  -4.6162377891635037e-10 3.9258803532545595e-11 0.0000000000000000e+00  -4.4846380526707570e-10 8.2595664328686390e-11 0.0000000000000000e+00  -4.2606090862596154e-10 1.2600723850273464e-10 0.0000000000000000e+00  -3.9382881298613131e-10 1.6912956047513489e-10 0.0000000000000000e+00  -3.5115825315256736e-10 2.1105517163137678e-10 0.0000000000000000e+00  -2.9768911017511170e-10 2.5013105514505810e-10 0.0000000000000000e+00  -2.3366190931788508e-10 2.8327261318396882e-10 0.0000000000000000e+00  -1.6029948665073850e-10 3.0170506192321204e-10 0.0000000000000000e+00  -8.0234569459618770e-11 2.6578960324370895e-10 0.0000000000000000e+00  3.8320555334626840e-14 -2.2301426476749276e-13 0.0000000000000000e+00  2.8427334858098923e-14 1.3486238383379962e-13 0.0000000000000000e+00  -6.4479818377211774e-11 -1.8931815966028747e-10 0.0000000000000000e+00  -1.3462844683017376e-10 -2.2926936737727716e-10 0.0000000000000000e+00  -2.0129792323200735e-10 -2.2234172940462901e-10 0.0000000000000000e+00  -2.6106607026206796e-10 -2.0046940978219933e-10 0.0000000000000000e+00  -3.1224853832843465e-10 -1.7219266535513468e-10 0.0000000000000000e+00  -3.5404549591546583e-10 -1.4055019018619847e-10 0.0000000000000000e+00  -3.8624177257867887e-10 -1.0714102754936384e-10 0.0000000000000000e+00  -4.0896651396716608e-10 -7.2931798412483892e-11 0.0000000000000000e+00  -4.2248428219429661e-10 -3.8459071292601166e-11 0.0000000000000000e+00  -4.2703812529466296e-10 -3.9588616039564764e-12 0.0000000000000000e+00  -4.2275396042080123e-10 3.0497241223945355e-11 0.0000000000000000e+00  -4.0960512063749245e-10 6.4859203756234541e-11 0.0000000000000000e+00  -3.8743374526997863e-10 9.8958626956780526e-11 0.0000000000000000e+00  -3.5602845443607029e-10 1.3238235074845953e-10 0.0000000000000000e+00  -3.1525840477037816e-10 1.6436863416936112e-10 0.0000000000000000e+00  -2.6525768978797466e-10 1.9369353240779580e-10 0.0000000000000000e+00  -2.0664175084861748e-10 2.1819727862463590e-10 0.0000000000000000e+00  -1.4073589201295810e-10 2.3159279577456943e-10 0.0000000000000000e+00  -6.9919630306685971e-11 2.0411819077782915e-10 0.0000000000000000e+00  3.3179501778169661e-14 -1.7268032308843383e-13 0.0000000000000000e+00  2.6195742360232933e-14 9.4225486315959806e-14 0.0000000000000000e+00  -5.8798729010427468e-11 -1.3565144861486692e-10 0.0000000000000000e+00  -1.2247301915279650e-10 -1.6590867040671266e-10 0.0000000000000000e+00  -1.8333044550382537e-10 -1.6193776080326668e-10 0.0000000000000000e+00  -2.3847657428591512e-10 -1.4689358235710802e-10 0.0000000000000000e+00  -2.8634518206123155e-10 -1.2698879806166930e-10 0.0000000000000000e+00  -3.2601408891759298e-10 -1.0436652670971898e-10 0.0000000000000000e+00  -3.5700837258095697e-10 -8.0148334591815556e-11 0.0000000000000000e+00  -3.7915576837320952e-10 -5.5053866729777448e-11 0.0000000000000000e+00  -3.9245340094830304e-10 -2.9538068891371817e-11 0.0000000000000000e+00  -3.9695961321956402e-10 -3.8655720256298084e-12 0.0000000000000000e+00  -3.9272343646939088e-10 2.1807293124820364e-11 0.0000000000000000e+00  -3.7975710036211273e-10 4.7341315812428794e-11 0.0000000000000000e+00  -3.5805225056754823e-10 7.2523807712158104e-11 0.0000000000000000e+00  -3.2763806276657278e-10 9.6989614542162921e-11 0.0000000000000000e+00  -2.8867630818995318e-10 1.2016261334720940e-10 0.0000000000000000e+00  -2.4158312880277005e-10 1.4119706706242655e-10 0.0000000000000000e+00  -1.8716329605705317e-10 1.5867691344735231e-10 0.0000000000000000e+00  -1.2675882092763994e-10 1.6838490639923732e-10 0.0000000000000000e+00  -6.2572663587950844e-11 1.4915910987354799e-10 0.0000000000000000e+00  2.9481027340860022e-14 -1.2830280459477625e-13 0.0000000000000000e+00  2.4828199374706815e-14 5.6524114005234565e-14 0.0000000000000000e+00  -5.5160249472213612e-11 -8.6277737562853914e-11 0.0000000000000000e+00  -1.1452122956273596e-10 -1.0755506527362421e-10 0.0000000000000000e+00  -1.7141095096855457e-10 -1.0595308227814825e-10 0.0000000000000000e+00  -2.2329904838033709e-10 -9.6745154280571285e-11 0.0000000000000000e+00  -2.6871963779852464e-10 -8.4176188185651380e-11 0.0000000000000000e+00  -3.0670505059028471e