<?xml version="1.0"?>
<VTKFile type="UnstructuredGrid"  version="0.1"  >
<UnstructuredGrid>
<Piece  NumberOfPoints="651" NumberOfCells="1200">
<Points>
<DataArray  type="Float64"  NumberOfComponents="3"  format="ascii">0 0 0  50000 0 0  100000 0 0  150000 0 0  200000 0 0  250000 0 0  300000 0 0  350000 0 0  400000 0 0  450000 0 0  500000 0 0  550000 0 0  600000 0 0  650000 0 0  700000 0 0  750000 0 0  800000 0 0  850000 0 0  900000 0 0  950000 0 0  1000000 0 0  0 50000 0  50000 50000 0  100000 50000 0  150000 50000 0  200000 50000 0  250000 50000 0  300000 50000 0  350000 50000 0  400000 50000 0  450000 50000 0  500000 50000 0  550000 50000 0  600000 50000 0  650000 50000 0  700000 50000 0  750000 50000 0  800000 50000 0  850000 50000 0  900000 50000 0  950000 50000 0  1000000 50000 0  0 100000 0  50000 100000 0  100000 100000 0  150000 100000 0  200000 100000 0  250000 100000 0  300000 100000 0  350000 100000 0  400000 100000 0  450000 100000 0  500000 100000 0  550000 100000 0  600000 100000 0  650000 100000 0  700000 100000 0  750000 100000 0  800000 100000 0  850000 100000 0  900000 100000 0  950000 100000 0  1000000 100000 0  0 150000 0  50000 150000 0  100000 150000 0  150000 150000 0  200000 150000 0  250000 150000 0  300000 150000 0  350000 150000 0  400000 150000 0  450000 150000 0  500000 150000 0  550000 150000 0  600000 150000 0  650000 150000 0  700000 150000 0  750000 150000 0  800000 150000 0  850000 150000 0  900000 150000 0  950000 150000 0  1000000 150000 0  0 200000 0  50000 200000 0  100000 200000 0  150000 200000 0  200000 200000 0  250000 200000 0  300000 200000 0  350000 200000 0  400000 200000 0  450000 200000 0  500000 200000 0  550000 200000 0  600000 200000 0  650000 200000 0  700000 200000 0  750000 200000 0  800000 200000 0  850000 200000 0  900000 200000 0  950000 200000 0  1000000 200000 0  0 250000 0  50000 250000 0  100000 250000 0  150000 250000 0  200000 250000 0  250000 250000 0  300000 250000 0  350000 250000 0  400000 250000 0  450000 250000 0  500000 250000 0  550000 250000 0  600000 250000 0  650000 250000 0  700000 250000 0  750000 250000 0  800000 250000 0  850000 250000 0  900000 250000 0  950000 250000 0  1000000 250000 0  0 300000 0  50000 300000 0  100000 300000 0  150000 300000 0  200000 300000 0  250000 300000 0  300000 300000 0  350000 300000 0  400000 300000 0  450000 300000 0  500000 300000 0  550000 300000 0  600000 300000 0  650000 300000 0  700000 300000 0  750000 300000 0  800000 300000 0  850000 300000 0  900000 300000 0  950000 300000 0  1000000 300000 0  0 350000 0  50000 350000 0  100000 350000 0  150000 350000 0  200000 350000 0  250000 350000 0  300000 350000 0  350000 350000 0  400000 350000 0  450000 350000 0  500000 350000 0  550000 350000 0  600000 350000 0  650000 350000 0  700000 350000 0  750000 350000 0  800000 350000 0  850000 350000 0  900000 350000 0  950000 350000 0  1000000 350000 0  0 400000 0  50000 400000 0  100000 400000 0  150000 400000 0  200000 400000 0  250000 400000 0  300000 400000 0  350000 400000 0  400000 400000 0  450000 400000 0  500000 400000 0  550000 400000 0  600000 400000 0  650000 400000 0  700000 400000 0  750000 400000 0  800000 400000 0  850000 400000 0  900000 400000 0  950000 400000 0  1000000 400000 0  0 450000 0  50000 450000 0  100000 450000 0  150000 450000 0  200000 450000 0  250000 450000 0  300000 450000 0  350000 450000 0  400000 450000 0  450000 450000 0  500000 450000 0  550000 450000 0  600000 450000 0  650000 450000 0  700000 450000 0  750000 450000 0  800000 450000 0  850000 450000 0  900000 450000 0  950000 450000 0  1000000 450000 0  0 500000 0  50000 500000 0  100000 500000 0  150000 500000 0  200000 500000 0  250000 500000 0  300000 500000 0  350000 500000 0  400000 500000 0  450000 500000 0  500000 500000 0  550000 500000 0  600000 500000 0  650000 500000 0  700000 500000 0  750000 500000 0  800000 500000 0  850000 500000 0  900000 500000 0  950000 500000 0  1000000 500000 0  0 550000 0  50000 550000 0  100000 550000 0  150000 550000 0  200000 550000 0  250000 550000 0  300000 550000 0  350000 550000 0  400000 550000 0  450000 550000 0  500000 550000 0  550000 550000 0  600000 550000 0  650000 550000 0  700000 550000 0  750000 550000 0  800000 550000 0  850000 550000 0  900000 550000 0  950000 550000 0  1000000 550000 0  0 600000 0  50000 600000 0  100000 600000 0  150000 600000 0  200000 600000 0  250000 600000 0  300000 600000 0  350000 600000 0  400000 600000 0  450000 600000 0  500000 600000 0  550000 600000 0  600000 600000 0  650000 600000 0  700000 600000 0  750000 600000 0  800000 600000 0  850000 600000 0  900000 600000 0  950000 600000 0  1000000 600000 0  0 650000 0  50000 650000 0  100000 650000 0  150000 650000 0  200000 650000 0  250000 650000 0  300000 650000 0  350000 650000 0  400000 650000 0  450000 650000 0  500000 650000 0  550000 650000 0  600000 650000 0  650000 650000 0  700000 650000 0  750000 650000 0  800000 650000 0  850000 650000 0  900000 650000 0  950000 650000 0  1000000 650000 0  0 700000 0  50000 700000 0  100000 700000 0  150000 700000 0  200000 700000 0  250000 700000 0  300000 700000 0  350000 700000 0  400000 700000 0  450000 700000 0  500000 700000 0  550000 700000 0  600000 700000 0  650000 700000 0  700000 700000 0  750000 700000 0  800000 700000 0  850000 700000 0  900000 700000 0  950000 700000 0  1000000 700000 0  0 750000 0  50000 750000 0  100000 750000 0  150000 750000 0  200000 750000 0  250000 750000 0  300000 750000 0  350000 750000 0  400000 750000 0  450000 750000 0  500000 750000 0  550000 750000 0  600000 750000 0  650000 750000 0  700000 750000 0  750000 750000 0  800000 750000 0  850000 750000 0  900000 750000 0  950000 750000 0  1000000 750000 0  0 800000 0  50000 800000 0  100000 800000 0  150000 800000 0  200000 800000 0  250000 800000 0  300000 800000 0  350000 800000 0  400000 800000 0  450000 800000 0  500000 800000 0  550000 800000 0  600000 800000 0  650000 800000 0  700000 800000 0  750000 800000 0  800000 800000 0  850000 800000 0  900000 800000 0  950000 800000 0  1000000 800000 0  0 850000 0  50000 850000 0  100000 850000 0  150000 850000 0  200000 850000 0  250000 850000 0  300000 850000 0  350000 850000 0  400000 850000 0  450000 850000 0  500000 850000 0  550000 850000 0  600000 850000 0  650000 850000 0  700000 850000 0  750000 850000 0  800000 850000 0  850000 850000 0  900000 850000 0  950000 850000 0  1000000 850000 0  0 900000 0  50000 900000 0  100000 900000 0  150000 900000 0  200000 900000 0  250000 900000 0  300000 900000 0  350000 900000 0  400000 900000 0  450000 900000 0  500000 900000 0  550000 900000 0  600000 900000 0  650000 900000 0  700000 900000 0  750000 900000 0  800000 900000 0  850000 900000 0  900000 900000 0  950000 900000 0  1000000 900000 0  0 950000 0  50000 950000 0  100000 950000 0  150000 950000 0  200000 950000 0  250000 950000 0  300000 950000 0  350000 950000 0  400000 950000 0  450000 950000 0  500000 950000 0  550000 950000 0  600000 950000 0  650000 950000 0  700000 950000 0  750000 950000 0  800000 950000 0  850000 950000 0  900000 950000 0  950000 950000 0  1000000 950000 0  0 1000000 0  50000 1000000 0  100000 1000000 0  150000 1000000 0  200000 1000000 0  250000 1000000 0  300000 1000000 0  350000 1000000 0  400000 1000000 0  450000 1000000 0  500000 1000000 0  550000 1000000 0  600000 1000000 0  650000 1000000 0  700000 1000000 0  750000 1000000 0  800000 1000000 0  850000 1000000 0  900000 1000000 0  950000 1000000 0  1000000 1000000 0  0 1050000 0  50000 1050000 0  100000 1050000 0  150000 1050000 0  200000 1050000 0  250000 1050000 0  300000 1050000 0  350000 1050000 0  400000 1050000 0  450000 1050000 0  500000 1050000 0  550000 1050000 0  600000 1050000 0  650000 1050000 0  700000 1050000 0  750000 1050000 0  800000 1050000 0  850000 1050000 0  900000 1050000 0  950000 1050000 0  1000000 1050000 0  0 1100000 0  50000 1100000 0  100000 1100000 0  150000 1100000 0  200000 1100000 0  250000 1100000 0  300000 1100000 0  350000 1100000 0  400000 1100000 0  450000 1100000 0  500000 1100000 0  550000 1100000 0  600000 1100000 0  650000 1100000 0  700000 1100000 0  750000 1100000 0  800000 1100000 0  850000 1100000 0  900000 1100000 0  950000 1100000 0  1000000 1100000 0  0 1150000 0  50000 1150000 0  100000 1150000 0  150000 1150000 0  200000 1150000 0  250000 1150000 0  300000 1150000 0  350000 1150000 0  400000 1150000 0  450000 1150000 0  500000 1150000 0  550000 1150000 0  600000 1150000 0  650000 1150000 0  700000 1150000 0  750000 1150000 0  800000 1150000 0  850000 1150000 0  900000 1150000 0  950000 1150000 0  1000000 1150000 0  0 1200000 0  50000 1200000 0  100000 1200000 0  150000 1200000 0  200000 1200000 0  250000 1200000 0  300000 1200000 0  350000 1200000 0  400000 1200000 0  450000 1200000 0  500000 1200000 0  550000 1200000 0  600000 1200000 0  650000 1200000 0  700000 1200000 0  750000 1200000 0  800000 1200000 0  850000 1200000 0  900000 1200000 0  950000 1200000 0  1000000 1200000 0  0 1250000 0  50000 1250000 0  100000 1250000 0  150000 1250000 0  200000 1250000 0  250000 1250000 0  300000 1250000 0  350000 1250000 0  400000 1250000 0  450000 1250000 0  500000 1250000 0  550000 1250000 0  600000 1250000 0  650000 1250000 0  700000 1250000 0  750000 1250000 0  800000 1250000 0  850000 1250000 0  900000 1250000 0  950000 1250000 0  1000000 1250000 0  0 1300000 0  50000 1300000 0  100000 1300000 0  150000 1300000 0  200000 1300000 0  250000 1300000 0  300000 1300000 0  350000 1300000 0  400000 1300000 0  450000 1300000 0  500000 1300000 0  550000 1300000 0  600000 1300000 0  650000 1300000 0  700000 1300000 0  750000 1300000 0  800000 1300000 0  850000 1300000 0  900000 1300000 0  950000 1300000 0  1000000 1300000 0  0 1350000 0  50000 1350000 0  100000 1350000 0  150000 1350000 0  200000 1350000 0  250000 1350000 0  300000 1350000 0  350000 1350000 0  400000 1350000 0  450000 1350000 0  500000 1350000 0  550000 1350000 0  600000 1350000 0  650000 1350000 0  700000 135
[...]
<PointData  Vectors="f_5995"> 
<DataArray  type="Float64"  Name="f_5995"  NumberOfComponents="3" format="ascii">1.7531519468296859e-12 3.2401439778155094e-12 0.0000000000000000e+00  8.0002115730103196e-08 2.2789269520121392e-12 0.0000000000000000e+00  8.0001727083067508e-08 9.6900348093092780e-13 0.0000000000000000e+00  8.0001113959968805e-08 2.6250135690566157e-13 0.0000000000000000e+00  8.0000901531185903e-08 8.7168449498794394e-14 0.0000000000000000e+00  8.0000788091874555e-08 5.8891873306171305e-14 0.0000000000000000e+00  8.0000707464570055e-08 4.4272516565687402e-14 0.0000000000000000e+00  8.0000652979109032e-08 2.9691167019084308e-14 0.0000000000000000e+00  8.0000619977834022e-08 1.7578455143524460e-14 0.0000000000000000e+00  8.0000603894544182e-08 7.5159173427329303e-15 0.0000000000000000e+00  8.0000602322865059e-08 -1.9346451772926866e-15 0.0000000000000000e+00  8.0000614949766310e-08 -1.2219669549529408e-14 0.0000000000000000e+00  8.0000643410581716e-08 -2.5466612088083314e-14 0.0000000000000000e+00  8.0000693016169304e-08 -4.3466512957619464e-14 0.0000000000000000e+00  8.0000777019512596e-08 -5.5617199368341598e-14 0.0000000000000000e+00  8.0000903393565741e-08 -3.2925127935830575e-14 0.0000000000000000e+00  8.0001006644429269e-08 -1.5839628799183613e-13 0.0000000000000000e+00  8.0001215873330635e-08 -1.6107415331397373e-12 0.0000000000000000e+00  8.0002254387224922e-08 -4.0139558473830962e-12 0.0000000000000000e+00  7.9982185198921827e-08 1.6345894064905536e-11 0.0000000000000000e+00  -2.2853420748022624e-11 2.2045815086852519e-11 0.0000000000000000e+00  1.2393994401664985e-12 2.5756203260889959e-12 0.0000000000000000e+00  1.2061995009877545e-08 -1.1463147463754389e-09 0.0000000000000000e+00  1.3923283349158925e-08 -9.0885495582168262e-10 0.0000000000000000e+00  1.5584031741652148e-08 -4.0659421011181251e-10 0.0000000000000000e+00  1.6162233567266426e-08 -2.4531558784502425e-10 0.0000000000000000e+00  1.6373761836223905e-08 -1.5442680425290990e-10 0.0000000000000000e+00  1.6490195494518253e-08 -9.5214977382331303e-11 0.0000000000000000e+00  1.6565351964784452e-08 -5.5811768162118280e-11 0.0000000000000000e+00  1.6612455214136003e-08 -2.7429713115193927e-11 0.0000000000000000e+00  1.6638015572534809e-08 -4.6124823051964882e-12 0.0000000000000000e+00  1.6645498642870211e-08 1.6108295922367479e-11 0.0000000000000000e+00  1.6636030523529635e-08 3.7460269398021913e-11 0.0000000000000000e+00  1.6608699032089062e-08 6.2299882595162077e-11 0.0000000000000000e+00  1.6560412337268945e-08 9.4500070328160720e-11 0.0000000000000000e+00  1.6485479275221597e-08 1.4015221545688612e-10 0.0000000000000000e+00  1.6376378550478959e-08 2.0865106178786848e-10 0.0000000000000000e+00  1.6226634124189843e-08 3.1522645906426729e-10 0.0000000000000000e+00  1.5981992816793829e-08 5.3751326819406116e-10 0.0000000000000000e+00  1.5099216154340654e-08 1.4083548762437530e-09 0.0000000000000000e+00  1.1522166113508179e-08 4.0310809830304840e-09 0.0000000000000000e+00  -1.6779920645264533e-11 1.7391736964108050e-11 0.0000000000000000e+00  4.8775339877767309e-13 1.4038118260843846e-12 0.0000000000000000e+00  3.4294137893152998e-10 -2.6264358000798728e-09 0.0000000000000000e+00  1.9398465836944795e-09 -1.2866501159393541e-09 0.0000000000000000e+00  1.6573160935174472e-09 -8.0969883796942370e-10 0.0000000000000000e+00  1.8879329650670893e-09 -5.1589049317142854e-10 0.0000000000000000e+00  2.0996768128227133e-09 -3.2999087183063379e-10 0.0000000000000000e+00  2.2285494761522295e-09 -2.1319570066310057e-10 0.0000000000000000e+00  2.3094978558899723e-09 -1.3492158466420444e-10 0.0000000000000000e+00  2.3609033189856047e-09 -7.7885004359864913e-11 0.0000000000000000e+00  2.3901047796935106e-09 -3.2047488302886081e-11 0.0000000000000000e+00  2.4005006017641872e-09 9.1024226205562805e-12 0.0000000000000000e+00  2.3934360486545373e-09 5.0649112166228354e-11 0.0000000000000000e+00  2.3686635396818056e-09 9.7669732473085567e-11 0.0000000000000000e+00  2.3245230612452606e-09 1.5658677945112242e-10 0.0000000000000000e+00  2.2582337171212307e-09 2.3705010587705549e-10 0.0000000000000000e+00  2.1666472542108246e-09 3.5570657166779265e-10 0.0000000000000000e+00  2.0448667572516612e-09 5.4782651012905633e-10 0.0000000000000000e+00  1.8686306670687774e-09 9.0215032281013790e-10 0.0000000000000000e+00  1.5847645059779092e-09 1.5569006844094461e-09 0.0000000000000000e+00  1.3928937894719470e-09 2.0523683091736587e-09 0.0000000000000000e+00  3.6756119348036944e-12 -2.2623942698336517e-12 0.0000000000000000e+00  1.8014337378906850e-13 9.2534202888078442e-13 0.0000000000000000e+00  -3.6470849122988814e-10 -1.5020860473580508e-09 0.0000000000000000e+00  -4.2283745327872260e-10 -1.4093887283491474e-09 0.0000000000000000e+00  -5.1862777317909052e-10 -9.8376186262324091e-10 0.0000000000000000e+00  -5.3109583672727969e-10 -6.5351086747920979e-10 0.0000000000000000e+00  -4.7793068600949161e-10 -4.4108479732890173e-10 0.0000000000000000e+00  -4.1028630793808589e-10 -2.9633188236411186e-10 0.0000000000000000e+00  -3.5572439074570932e-10 -1.9366016378116226e-10 0.0000000000000000e+00  -3.1785609053918112e-10 -1.1616369565304340e-10 0.0000000000000000e+00  -2.9509502415994490e-10 -5.2681563658594699e-11 0.0000000000000000e+00  -2.8600598083751903e-10 4.5423796515219058e-12 0.0000000000000000e+00  -2.8978619953435456e-10 6.1733030570654438e-11 0.0000000000000000e+00  -3.0610276838035910e-10 1.2497135235566524e-10 0.0000000000000000e+00  -3.3476516097363560e-10 2.0148765055453655e-10 0.0000000000000000e+00  -3.7501886448570146e-10 3.0130879482532693e-10 0.0000000000000000e+00  -4.2412947810106615e-10 4.3987619746035256e-10 0.0000000000000000e+00  -4.7442907091178049e-10 6.4148959056357972e-10 0.0000000000000000e+00  -5.0213885997986888e-10 9.3266146614684205e-10 0.0000000000000000e+00  -4.2186866021722020e-10 1.2667611594292519e-09 0.0000000000000000e+00  -6.4606290982353893e-11 1.2752724373198151e-09 0.0000000000000000e+00  1.5142660986463490e-12 -1.1227004790830315e-12 0.0000000000000000e+00  9.7292023423804695e-14 7.0861822005236462e-13 0.0000000000000000e+00  -2.9086570065721942e-10 -1.0090564157716024e-09 0.0000000000000000e+00  -5.5860458664356307e-10 -1.1469780920070922e-09 0.0000000000000000e+00  -6.9773108283159462e-10 -9.1082772919785460e-10 0.0000000000000000e+00  -7.8466666990636594e-10 -6.7454435533880955e-10 0.0000000000000000e+00  -7.9912729913867159e-10 -4.8181466661154844e-10 0.0000000000000000e+00  -7.8625567335298259e-10 -3.3707218782562692e-10 0.0000000000000000e+00  -7.6556882073085294e-10 -2.2702269909590187e-10 0.0000000000000000e+00  -7.4669525131178122e-10 -1.3963797603037843e-10 0.0000000000000000e+00  -7.3363797553634178e-10 -6.5802631800809961e-11 0.0000000000000000e+00  -7.2759052182413292e-10 1.6042920092843093e-12 0.0000000000000000e+00  -7.2860979991294872e-10 6.8644492619566476e-11 0.0000000000000000e+00  -7.3609780074986424e-10 1.4119333617475702e-10 0.0000000000000000e+00  -7.4859419790562697e-10 2.2575690542883048e-10 0.0000000000000000e+00  -7.6297267336228685e-10 3.3023976190072550e-10 0.0000000000000000e+00  -7.7270322664539926e-10 4.6430782802807646e-10 0.0000000000000000e+00  -7.6409315321826670e-10 6.3729186405075091e-10 0.0000000000000000e+00  -7.0832086608749458e-10 8.4624813949077731e-10 0.0000000000000000e+00  -5.5379546505986001e-10 1.0371026181466908e-09 0.0000000000000000e+00  -2.6625973312115889e-10 9.9853772566223960e-10 0.0000000000000000e+00  1.4135168775850054e-13 -8.6809967189182929e-13 0.0000000000000000e+00  7.8337100794674383e-14 5.6770299058554181e-13 0.0000000000000000e+00  -2.1123719772492516e-10 -7.7642468487851392e-10 0.0000000000000000e+00  -4.2911181153853219e-10 -9.0045654707186743e-10 0.0000000000000000e+00  -5.8621892269272158e-10 -7.8624733458239732e-10 0.0000000000000000e+00  -6.8463460888506911e-10 -6.2211584206819296e-10 0.0000000000000000e+00  -7.3547254121861549e-10 -4.7019288249879353e-10 0.0000000000000000e+00  -7.5510173168200153e-10 -3.4274338460624795e-10 0.0000000000000000e+00  -7.5901268268072713e-10 -2.3764715069856413e-10 0.0000000000000000e+00  -7.5664291859416247e-10 -1.4945754911285119e-10 0.0000000000000000e+00  -7.5293793797344742e-10 -7.2242298821859420e-11 0.0000000000000000e+00  -7.5022380280202872e-10 -5.5406050390279661e-13 0.0000000000000000e+00  -7.4915879170833684e-10 7.0615390045262172e-11 0.0000000000000000e+00  -7.4912918223379560e-10 1.4612521838423841e-10 0.0000000000000000e+00  -7.4815232131879922e-10 2.3095270499284245e-10 0.0000000000000000e+00  -7.4227922308158164e-10 3.3021397150338008e-10 0.0000000000000000e+00  -7.2440618476656544e-10 4.4843245063541463e-10 0.0000000000000000e+00  -6.8245260312966241e-10 5.8682370310073997e-10 0.0000000000000000e+00  -5.9797929314065391e-10 7.3602641179896317e-10 0.0000000000000000e+00  -4.5066914680992425e-10 8.5686307772515441e-10 0.0000000000000000e+00  -2.3780738880451824e-10 8.0312831565718366e-10 0.0000000000000000e+00  4.9736831635921312e-14 -7.3019169377360909e-13 0.0000000000000000e+00  6.4721750002893392e-14 4.5536364895833725e-13 0.0000000000000000e+00  -1.5795742844057010e-10 -6.1779305196804686e-10 0.0000000000000000e+00  -3.2593926005946852e-10 -7.2177876223709748e-10 0.0000000000000000e+00  -4.6450892902304885e-10 -6.5845932946272751e-10 0.0000000000000000e+00  -5.6291525744290290e-10 -5.4652016139411199e-10 0.0000000000000000e+00  -6.2655006889435862e-10 -4.3088777724374976e-10 0.0000000000000000e+00  -6.6342726726441827e-10 -3.2478217481072428e-10 0.0000000000000000e+00  -6.8306491911343073e-10 -2.3110751425721242e-10 0.0000000000000000e+00  -6.9241501357575328e-10 -1.4825504362755177e-10 0.0000000000000000e+00  -6.9593766463656974e-10 -7.3110307020239503e-11 0.0000000000000000e+00  -6.9603210144831547e-10 -2.1035221714265530e-12 0.0000000000000000e+00  -6.9351505975665899e-10 6.8386241273747737e-11 0.0000000000000000e+00  -6.8785532351515155e-10 1.4189764487750854e-10 0.0000000000000000e+00  -6.7712762493217738e-10 2.2177280421929573e-10 0.0000000000000000e+00  -6.5771188075728540e-10 3.1082258021629991e-10 0.0000000000000000e+00  -6.2382897709429381e-10 4.1045743349033458e-10 0.0000000000000000e+00  -5.6726996083070593e-10 5.1881577332444989e-10 0.0000000000000000e+00  -4.7837574422967143e-10 6.2682679132397316e-10 0.0000000000000000e+00  -3.5006148056620524e-10 7.0579609565308014e-10 0.0000000000000000e+00  -1.8452024158785814e-10 6.4537636320506671e-10 0.0000000000000000e+00  8.2605899442804275e-14 -5.6734783252554316e-13 0.0000000000000000e+00  5.2201274615720892e-14 3.6532852101859874e-13 0.0000000000000000e+00  -1.2342184550343225e-10 -4.9546439432231543e-10 0.0000000000000000e+00  -2.5666423996049167e-10 -5.8435327519462656e-10 0.0000000000000000e+00  -3.7337876476615871e-10 -5.4517833087588519e-10 0.0000000000000000e+00  -4.6462550984371279e-10 -4.6711207079711236e-10 0.0000000000000000e+00  -5.3052380591053512e-10 -3.7952747255418740e-10 0.0000000000000000e+00  -5.7506728438126917e-10 -2.9367999955632841e-10 0.0000000000000000e+00  -6.0338445347087209e-10 -2.1343363783338711e-10 0.0000000000000000e+00  -6.2009432308116029e-10 -1.3922472492686621e-10 0.0000000000000000e+00  -6.2852102184012987e-10 -6.9797712683947018e-11 0.0000000000000000e+00  -6.3064056309353453e-10 -3.1153832389567933e-12 0.0000000000000000e+00  -6.2719448528041227e-10 6.3139344429854419e-11 0.0000000000000000e+00  -6.1777422399851623e-10 1.3125745287383267e-10 0.0000000000000000e+00  -6.0081929886370746e-10 2.0321945748846976e-10 0.0000000000000000e+00  -5.7355080813589859e-10 2.8028528353419982e-10 0.0000000000000000e+00  -5.3196581762397659e-10 3.6231882875365896e-10 0.0000000000000000e+00  -4.7118419184937761e-10 4.4668352201795396e-10 0.0000000000000000e+00  -3.8662240582498777e-10 5.2594844932640961e-10 0.0000000000000000e+00  -2.7627878155109734e-10 5.7871231401105081e-10 0.0000000000000000e+00  -1.4325665542426403e-10 5.2001247043440795e-10 0.0000000000000000e+00  7.3453083043406433e-14 -4.4536133893991692e-13 0.0000000000000000e+00  4.2920858170086974e-14 2.9275345358064017e-13 0.0000000000000000e+00  -1.0023716862083100e-10 -3.9759225852579060e-10 0.0000000000000000e+00  -2.0921408526275267e-10 -4.7270781367511422e-10 0.0000000000000000e+00  -3.0808080353544328e-10 -4.4747892624757790e-10 0.0000000000000000e+00  -3.9004656035541851e-10 -3.9131269235036511e-10 0.0000000000000000e+00  -4.5364875618019541e-10 -3.2485280959430464e-10 0.0000000000000000e+00  -5.0031198262845628e-10 -2.5637224386453769e-10 0.0000000000000000e+00  -5.3264317671353484e-10 -1.8944895143445157e-10 0.0000000000000000e+00  -5.5338741944215960e-10 -1.2528515241195141e-10 0.0000000000000000e+00  -5.6475462461302109e-10 -6.3686151898776620e-11 0.0000000000000000e+00  -5.6816727233071047e-10 -3.6931441389165647e-12 0.0000000000000000e+00  -5.6419442194320043e-10 5.5989264069738409e-11 0.0000000000000000e+00  -5.5255507554061659e-10 1.1666322978984146e-10 0.0000000000000000e+00  -5.3213924691907580e-10 1.7932837838574185e-10 0.0000000000000000e+00  -5.0106549366368093e-10 2.4432346343450255e-10 0.0000000000000000e+00  -4.5686044677732801e-10 3.1087142625115547e-10 0.0000000000000000e+00  -3.9690821350472560e-10 3.7645209211000041e-10 0.0000000000000000e+00  -3.1931414348024713e-10 4.3534351746290501e-10 0.0000000000000000e+00  -2.2412773731777752e-10 4.7155112215640207e-10 0.0000000000000000e+00  -1.1450621557732610e-10 4.1906253985322289e-10 0.0000000000000000e+00  5.7240033120572206e-14 -3.5574942868131440e-13 0.0000000000000000e+00  3.6466017367573367e-14 2.3254352964504015e-13 0.0000000000000000e+00  -8.4078082013487438e-11 -3.1689021401839304e-10 0.0000000000000000e+00  -1.7572633429538489e-10 -3.7921565018829321e-10 0.0000000000000000e+00  -2.6077212339623749e-10 -3.6271341192919552e-10 0.0000000000000000e+00  -3.3395517875034153e-10 -3.2157131809782967e-10 0.0000000000000000e+00  -3.9347398155889112e-10 -2.7105395724927805e-10 0.0000000000000000e+00  -4.3943087317807010e-10 -2.1706019842422901e-10 0.0000000000000000e+00  -4.7294776831129868e-10 -1.6248619897088289e-10 0.0000000000000000e+00  -4.9548330997088716e-10 -1.0866166156511550e-10 0.0000000000000000e+00  -5.0836037832511366e-10 -5.5915253951307463e-11 0.0000000000000000e+00  -5.1249486561231405e-10 -3.9579010851077167e-12 0.0000000000000000e+00  -5.0827557824812047e-10 4.7799480729933624e-11 0.0000000000000000e+00  -4.9553185838430363e-10 9.9967314354471209e-11 0.0000000000000000e+00  -4.7356197880993328e-10 1.5291232249859446e-10 0.0000000000000000e+00  -4.4123156334055257e-10 2.0648539532112290e-10 0.0000000000000000e+00  -3.9718328652307745e-10 2.5973397226619337e-10 0.0000000000000000e+00  -3.4021224874237853e-10 3.1054634082551478e-10 0.0000000000000000e+00  -2.6982758855426423e-10 3.5466355883783779e-10 0.0000000000000000e+00  -1.8691998933109282e-10 3.8016222879220217e-10 0.0000000000000000e+00  -9.4403072283037328e-11 3.3565882127397930e-10 0.0000000000000000e+00  4.6074758063261711e-14 -2.8448436561008547e-13 0.0000000000000000e+00  3.1884453874066925e-14 1.8102390909551999e-13 0.0000000000000000e+00  -7.2576809975438361e-11 -2.4839658384104741e-10 0.0000000000000000e+00  -1.5166518518887401e-10 -2.9904298195695798e-10 0.0000000000000000e+00  -2.2614618068578841e-10 -2.8825829537667520e-10 0.0000000000000000e+00  -2.9183650730670981e-10 -2.5805747906545298e-10 0.0000000000000000e+00  -3.4694358783292639e-10 -2.1989820109269598e-10 0.0000000000000000e+00  -3.9094996005594270e-10 -1.7801735178416451e-10 0.0000000000000000e+00  -4.2411907308811832e-10 -1.3460790616499168e-10 0.0000000000000000e+00  -4.4708676233520846e-10 -9.0864329631429789e-11 0.0000000000000000e+00  -4.6054058884106856e-10 -4.7309932178872840e-11 0.0000000000000000e+00  -4.6500249252290084e-10 -4.0213597906912955e-12 0.0000000000000000e+00  -4.6071047586905229e-10 3.9156891395331463e-11 0.0000000000000000e+00  -4.4757858530381514e-10 8.2404687101364980e-11 0.0000000000000000e+00  -4.2522345176211946e-10 1.2572566260473161e-10 0.0000000000000000e+00  -3.9306003338123058e-10 1.6875652658744642e-10 0.0000000000000000e+00  -3.5048005072254612e-10 2.1059162014572071e-10 0.0000000000000000e+00  -2.9712344851542035e-10 2.4957998081112715e-10 0.0000000000000000e+00  -2.3322850028027394e-10 2.8263422882002273e-10 0.0000000000000000e+00  -1.6000979329621989e-10 3.0095986285387978e-10 0.0000000000000000e+00  -8.0084035576791470e-11 2.6494411186484522e-10 0.0000000000000000e+00  3.8707091127985961e-14 -2.2509928893141251e-13 0.0000000000000000e+00  2.8613353809590447e-14 1.3571722472838773e-13 0.0000000000000000e+00  -6.4386640792490670e-11 -1.8866647399899330e-10 0.0000000000000000e+00  -1.3436985548114966e-10 -2.2869287589430477e-10 0.0000000000000000e+00  -2.0089902950096333e-10 -2.2186526875328470e-10 0.0000000000000000e+00  -2.6054751201981233e-10 -2.0006935667872116e-10 0.0000000000000000e+00  -3.1162925275237954e-10 -1.7186148973828927e-10 0.0000000000000000e+00  -3.5334433567119991e-10 -1.4028726582051721e-10 0.0000000000000000e+00  -3.8547751314277463e-10 -1.0694702094508778e-10 0.0000000000000000e+00  -4.0815765129083555e-10 -7.2807155381883463e-11 0.0000000000000000e+00  -4.2164898994156857e-10 -3.8403976218769529e-11 0.0000000000000000e+00  -4.2619438935566163e-10 -3.9735128106920854e-12 0.0000000000000000e+00  -4.2191981895175372e-10 3.0412466410597680e-11 0.0000000000000000e+00  -4.0879891862453872e-10 6.4703829094940870e-11 0.0000000000000000e+00  -3.8667429657132850e-10 9.8732449554014338e-11 0.0000000000000000e+00  -3.5533500390149589e-10 1.3208609208257651e-10 0.0000000000000000e+00  -3.1465028386156096e-10 1.6400467948459536e-10 0.0000000000000000e+00  -2.6475350932525622e-10 1.9326587470363791e-10 0.0000000000000000e+00  -2.0625761555792654e-10 2.1770745890185205e-10 0.0000000000000000e+00  -1.4048097363881644e-10 2.3102624846186861e-10 0.0000000000000000e+00  -6.9790661481842141e-11 2.0347669309001773e-10 0.0000000000000000e+00  3.3492786446672023e-14 -1.7419420034289288e-13 0.0000000000000000e+00  2.6370314889711543e-14 9.4809169591616529e-14 0.0000000000000000e+00  -5.8711419645965459e-11 -1.3517925340310467e-10 0.0000000000000000e+00  -1.2223987224800556e-10 -1.6548945381926540e-10 0.0000000000000000e+00  -1.8297031847429309e-10 -1.6159124617570957e-10 0.0000000000000000e+00  -2.3800577834359198e-10 -1.4660231762568335e-10 0.0000000000000000e+00  -2.8577958738729296e-10 -1.2674734261028900e-10 0.0000000000000000e+00  -3.2537026066795507e-10 -1.0417487267605069e-10 0.0000000000000000e+00  -3.5630347538271860e-10 -8.0007454781928942e-11 0.0000000000000000e+00  -3.7840727985312133e-10 -5.4964503981739741e-11 0.0000000000000000e+00  -3.9167892079789085e-10 -2.9500642926546340e-11 0.0000000000000000e+00  -3.9617680419996100e-10 -3.8803330900141129e-12 0.0000000000000000e+00  -3.9195004832837520e-10 2.1740177860103577e-11 0.0000000000000000e+00  -3.7901100709209316e-10 4.7221841964076357e-11 0.0000000000000000e+00  -3.5735142183015673e-10 7.2352407649615710e-11 0.0000000000000000e+00  -3.2700039409527137e-10 9.6767602638938711e-11 0.0000000000000000e+00  -2.8811924182087874e-10 1.1989265798054927e-10 0.0000000000000000e+00  -2.4112296891162277e-10 1.4088307594758823e-10 0.0000000000000000e+00  -1.8681386768897441e-10 1.5832103436827512e-10 0.0000000000000000e+00  -1.2652828690145694e-10 1.6797711046307388e-10 0.0000000000000000e+00  -6.2459699435931586e-11 1.4869769399645720e-10 0.0000000000000000e+00  2.9737239254043769e-14 -1.2938622442059513e-13 0.0000000000000000e+00  2.4995389390402315e-14 5.6851810127155096e-14 0.0000000000000000e+00  -5.5075661934179289e-11 -8.5969292753666751e-11 0.0000000000000000e+00  -1.1430515270658822e-10 -1.0728029925019392e-10 0.0000000000000000e+00  -1.7107736529958172e-10 -1.0572769632192489e-10 0.0000000000000000e+00  -2.2286119321664465e-10 -9.6557011791744325e-11 0.0000000000000000e+00  -2.6819134765653735e-10 -8.4021079349919236e-11 0.0000000000000000e+00  -3.0610135529026439e