<?xml version="1.0"?>
<VTKFile type="UnstructuredGrid"  version="0.1"  >
<UnstructuredGrid>
<Piece  NumberOfPoints="651" NumberOfCells="1200">
<Points>
<DataArray  type="Float64"  NumberOfComponents="3"  format="ascii">0 0 0  50000 0 0  100000 0 0  150000 0 0  200000 0 0  250000 0 0  300000 0 0  350000 0 0  400000 0 0  450000 0 0  500000 0 0  550000 0 0  600000 0 0  650000 0 0  700000 0 0  750000 0 0  800000 0 0  850000 0 0  900000 0 0  950000 0 0  1000000 0 0  0 50000 0  50000 50000 0  100000 50000 0  150000 50000 0  200000 50000 0  250000 50000 0  300000 50000 0  350000 50000 0  400000 50000 0  450000 50000 0  500000 50000 0  550000 50000 0  600000 50000 0  650000 50000 0  700000 50000 0  750000 50000 0  800000 50000 0  850000 50000 0  900000 50000 0  950000 50000 0  1000000 50000 0  0 100000 0  50000 100000 0  100000 100000 0  150000 100000 0  200000 100000 0  250000 100000 0  300000 100000 0  350000 100000 0  400000 100000 0  450000 100000 0  500000 100000 0  550000 100000 0  600000 100000 0  650000 100000 0  700000 100000 0  750000 100000 0  800000 100000 0  850000 100000 0  900000 100000 0  950000 100000 0  1000000 100000 0  0 150000 0  50000 150000 0  100000 150000 0  150000 150000 0  200000 150000 0  250000 150000 0  300000 150000 0  350000 150000 0  400000 150000 0  450000 150000 0  500000 150000 0  550000 150000 0  600000 150000 0  650000 150000 0  700000 150000 0  750000 150000 0  800000 150000 0  850000 150000 0  900000 150000 0  950000 150000 0  1000000 150000 0  0 200000 0  50000 200000 0  100000 200000 0  150000 200000 0  200000 200000 0  250000 200000 0  300000 200000 0  350000 200000 0  400000 200000 0  450000 200000 0  500000 200000 0  550000 200000 0  600000 200000 0  650000 200000 0  700000 200000 0  750000 200000 0  800000 200000 0  850000 200000 0  900000 200000 0  950000 200000 0  1000000 200000 0  0 250000 0  50000 250000 0  100000 250000 0  150000 250000 0  200000 250000 0  250000 250000 0  300000 250000 0  350000 250000 0  400000 250000 0  450000 250000 0  500000 250000 0  550000 250000 0  600000 250000 0  650000 250000 0  700000 250000 0  750000 250000 0  800000 250000 0  850000 250000 0  900000 250000 0  950000 250000 0  1000000 250000 0  0 300000 0  50000 300000 0  100000 300000 0  150000 300000 0  200000 300000 0  250000 300000 0  300000 300000 0  350000 300000 0  400000 300000 0  450000 300000 0  500000 300000 0  550000 300000 0  600000 300000 0  650000 300000 0  700000 300000 0  750000 300000 0  800000 300000 0  850000 300000 0  900000 300000 0  950000 300000 0  1000000 300000 0  0 350000 0  50000 350000 0  100000 350000 0  150000 350000 0  200000 350000 0  250000 350000 0  300000 350000 0  350000 350000 0  400000 350000 0  450000 350000 0  500000 350000 0  550000 350000 0  600000 350000 0  650000 350000 0  700000 350000 0  750000 350000 0  800000 350000 0  850000 350000 0  900000 350000 0  950000 350000 0  1000000 350000 0  0 400000 0  50000 400000 0  100000 400000 0  150000 400000 0  200000 400000 0  250000 400000 0  300000 400000 0  350000 400000 0  400000 400000 0  450000 400000 0  500000 400000 0  550000 400000 0  600000 400000 0  650000 400000 0  700000 400000 0  750000 400000 0  800000 400000 0  850000 400000 0  900000 400000 0  950000 400000 0  1000000 400000 0  0 450000 0  50000 450000 0  100000 450000 0  150000 450000 0  200000 450000 0  250000 450000 0  300000 450000 0  350000 450000 0  400000 450000 0  450000 450000 0  500000 450000 0  550000 450000 0  600000 450000 0  650000 450000 0  700000 450000 0  750000 450000 0  800000 450000 0  850000 450000 0  900000 450000 0  950000 450000 0  1000000 450000 0  0 500000 0  50000 500000 0  100000 500000 0  150000 500000 0  200000 500000 0  250000 500000 0  300000 500000 0  350000 500000 0  400000 500000 0  450000 500000 0  500000 500000 0  550000 500000 0  600000 500000 0  650000 500000 0  700000 500000 0  750000 500000 0  800000 500000 0  850000 500000 0  900000 500000 0  950000 500000 0  1000000 500000 0  0 550000 0  50000 550000 0  100000 550000 0  150000 550000 0  200000 550000 0  250000 550000 0  300000 550000 0  350000 550000 0  400000 550000 0  450000 550000 0  500000 550000 0  550000 550000 0  600000 550000 0  650000 550000 0  700000 550000 0  750000 550000 0  800000 550000 0  850000 550000 0  900000 550000 0  950000 550000 0  1000000 550000 0  0 600000 0  50000 600000 0  100000 600000 0  150000 600000 0  200000 600000 0  250000 600000 0  300000 600000 0  350000 600000 0  400000 600000 0  450000 600000 0  500000 600000 0  550000 600000 0  600000 600000 0  650000 600000 0  700000 600000 0  750000 600000 0  800000 600000 0  850000 600000 0  900000 600000 0  950000 600000 0  1000000 600000 0  0 650000 0  50000 650000 0  100000 650000 0  150000 650000 0  200000 650000 0  250000 650000 0  300000 650000 0  350000 650000 0  400000 650000 0  450000 650000 0  500000 650000 0  550000 650000 0  600000 650000 0  650000 650000 0  700000 650000 0  750000 650000 0  800000 650000 0  850000 650000 0  900000 650000 0  950000 650000 0  1000000 650000 0  0 700000 0  50000 700000 0  100000 700000 0  150000 700000 0  200000 700000 0  250000 700000 0  300000 700000 0  350000 700000 0  400000 700000 0  450000 700000 0  500000 700000 0  550000 700000 0  600000 700000 0  650000 700000 0  700000 700000 0  750000 700000 0  800000 700000 0  850000 700000 0  900000 700000 0  950000 700000 0  1000000 700000 0  0 750000 0  50000 750000 0  100000 750000 0  150000 750000 0  200000 750000 0  250000 750000 0  300000 750000 0  350000 750000 0  400000 750000 0  450000 750000 0  500000 750000 0  550000 750000 0  600000 750000 0  650000 750000 0  700000 750000 0  750000 750000 0  800000 750000 0  850000 750000 0  900000 750000 0  950000 750000 0  1000000 750000 0  0 800000 0  50000 800000 0  100000 800000 0  150000 800000 0  200000 800000 0  250000 800000 0  300000 800000 0  350000 800000 0  400000 800000 0  450000 800000 0  500000 800000 0  550000 800000 0  600000 800000 0  650000 800000 0  700000 800000 0  750000 800000 0  800000 800000 0  850000 800000 0  900000 800000 0  950000 800000 0  1000000 800000 0  0 850000 0  50000 850000 0  100000 850000 0  150000 850000 0  200000 850000 0  250000 850000 0  300000 850000 0  350000 850000 0  400000 850000 0  450000 850000 0  500000 850000 0  550000 850000 0  600000 850000 0  650000 850000 0  700000 850000 0  750000 850000 0  800000 850000 0  850000 850000 0  900000 850000 0  950000 850000 0  1000000 850000 0  0 900000 0  50000 900000 0  100000 900000 0  150000 900000 0  200000 900000 0  250000 900000 0  300000 900000 0  350000 900000 0  400000 900000 0  450000 900000 0  500000 900000 0  550000 900000 0  600000 900000 0  650000 900000 0  700000 900000 0  750000 900000 0  800000 900000 0  850000 900000 0  900000 900000 0  950000 900000 0  1000000 900000 0  0 950000 0  50000 950000 0  100000 950000 0  150000 950000 0  200000 950000 0  250000 950000 0  300000 950000 0  350000 950000 0  400000 950000 0  450000 950000 0  500000 950000 0  550000 950000 0  600000 950000 0  650000 950000 0  700000 950000 0  750000 950000 0  800000 950000 0  850000 950000 0  900000 950000 0  950000 950000 0  1000000 950000 0  0 1000000 0  50000 1000000 0  100000 1000000 0  150000 1000000 0  200000 1000000 0  250000 1000000 0  300000 1000000 0  350000 1000000 0  400000 1000000 0  450000 1000000 0  500000 1000000 0  550000 1000000 0  600000 1000000 0  650000 1000000 0  700000 1000000 0  750000 1000000 0  800000 1000000 0  850000 1000000 0  900000 1000000 0  950000 1000000 0  1000000 1000000 0  0 1050000 0  50000 1050000 0  100000 1050000 0  150000 1050000 0  200000 1050000 0  250000 1050000 0  300000 1050000 0  350000 1050000 0  400000 1050000 0  450000 1050000 0  500000 1050000 0  550000 1050000 0  600000 1050000 0  650000 1050000 0  700000 1050000 0  750000 1050000 0  800000 1050000 0  850000 1050000 0  900000 1050000 0  950000 1050000 0  1000000 1050000 0  0 1100000 0  50000 1100000 0  100000 1100000 0  150000 1100000 0  200000 1100000 0  250000 1100000 0  300000 1100000 0  350000 1100000 0  400000 1100000 0  450000 1100000 0  500000 1100000 0  550000 1100000 0  600000 1100000 0  650000 1100000 0  700000 1100000 0  750000 1100000 0  800000 1100000 0  850000 1100000 0  900000 1100000 0  950000 1100000 0  1000000 1100000 0  0 1150000 0  50000 1150000 0  100000 1150000 0  150000 1150000 0  200000 1150000 0  250000 1150000 0  300000 1150000 0  350000 1150000 0  400000 1150000 0  450000 1150000 0  500000 1150000 0  550000 1150000 0  600000 1150000 0  650000 1150000 0  700000 1150000 0  750000 1150000 0  800000 1150000 0  850000 1150000 0  900000 1150000 0  950000 1150000 0  1000000 1150000 0  0 1200000 0  50000 1200000 0  100000 1200000 0  150000 1200000 0  200000 1200000 0  250000 1200000 0  300000 1200000 0  350000 1200000 0  400000 1200000 0  450000 1200000 0  500000 1200000 0  550000 1200000 0  600000 1200000 0  650000 1200000 0  700000 1200000 0  750000 1200000 0  800000 1200000 0  850000 1200000 0  900000 1200000 0  950000 1200000 0  1000000 1200000 0  0 1250000 0  50000 1250000 0  100000 1250000 0  150000 1250000 0  200000 1250000 0  250000 1250000 0  300000 1250000 0  350000 1250000 0  400000 1250000 0  450000 1250000 0  500000 1250000 0  550000 1250000 0  600000 1250000 0  650000 1250000 0  700000 1250000 0  750000 1250000 0  800000 1250000 0  850000 1250000 0  900000 1250000 0  950000 1250000 0  1000000 1250000 0  0 1300000 0  50000 1300000 0  100000 1300000 0  150000 1300000 0  200000 1300000 0  250000 1300000 0  300000 1300000 0  350000 1300000 0  400000 1300000 0  450000 1300000 0  500000 1300000 0  550000 1300000 0  600000 1300000 0  650000 1300000 0  700000 1300000 0  750000 1300000 0  800000 1300000 0  850000 1300000 0  900000 1300000 0  950000 1300000 0  1000000 1300000 0  0 1350000 0  50000 1350000 0  100000 1350000 0  150000 1350000 0  200000 1350000 0  250000 1350000 0  300000 1350000 0  350000 1350000 0  400000 1350000 0  450000 1350000 0  500000 1350000 0  550000 1350000 0  600000 1350000 0  650000 1350000 0  700000 135
[...]
<PointData  Vectors="f_5995"> 
<DataArray  type="Float64"  Name="f_5995"  NumberOfComponents="3" format="ascii">1.8114049932296335e-12 3.2477710786644875e-12 0.0000000000000000e+00  8.0002127741802300e-08 2.2939403176781890e-12 0.0000000000000000e+00  8.0001614881358448e-08 8.9769500020404032e-13 0.0000000000000000e+00  8.0001073217955411e-08 2.3866139971235134e-13 0.0000000000000000e+00  8.0000881031189733e-08 8.8354478746701198e-14 0.0000000000000000e+00  8.0000765884937894e-08 5.9169637954092881e-14 0.0000000000000000e+00  8.0000685763653577e-08 4.2567445610578329e-14 0.0000000000000000e+00  8.0000633154757838e-08 2.8393026820436856e-14 0.0000000000000000e+00  8.0000601273989031e-08 1.6930981161789673e-14 0.0000000000000000e+00  8.0000585530272423e-08 7.2292546757209814e-15 0.0000000000000000e+00  8.0000583741570819e-08 -1.9441743170633207e-15 0.0000000000000000e+00  8.0000595609440883e-08 -1.1751655172421974e-14 0.0000000000000000e+00  8.0000622567915231e-08 -2.3556663290225661e-14 0.0000000000000000e+00  8.0000668263587246e-08 -3.9318665336335331e-14 0.0000000000000000e+00  8.0000740576126306e-08 -6.0475994954793493e-14 0.0000000000000000e+00  8.0000854840003066e-08 -7.8622493901409631e-14 0.0000000000000000e+00  8.0001024414733533e-08 -7.0168745919877901e-14 0.0000000000000000e+00  8.0001294817071867e-08 -2.0544063821531059e-13 0.0000000000000000e+00  8.0002269015235992e-08 -1.5097001463778779e-12 0.0000000000000000e+00  8.0001765007923065e-08 -1.9469733633460431e-12 0.0000000000000000e+00  1.1172268898764755e-12 -1.8956769839766324e-12 0.0000000000000000e+00  1.2922077463976968e-12 2.5709923372402914e-12 0.0000000000000000e+00  1.1730857966002584e-08 -1.1431362095420380e-09 0.0000000000000000e+00  1.3627868803911228e-08 -8.8902936493016501e-10 0.0000000000000000e+00  1.5251608771420117e-08 -3.8414914761312268e-10 0.0000000000000000e+00  1.5815783613444201e-08 -2.1997306435455412e-10 0.0000000000000000e+00  1.6026954383052354e-08 -1.2743062437221134e-10 0.0000000000000000e+00  1.6145295691493364e-08 -6.7628898081574872e-11 0.0000000000000000e+00  1.6221846827170741e-08 -2.7959101133574406e-11 0.0000000000000000e+00  1.6269777352021541e-08 6.0744551963862184e-13 0.0000000000000000e+00  1.6295776503511970e-08 2.3580828746899904e-11 0.0000000000000000e+00  1.6303391802737991e-08 4.4450573130007744e-11 0.0000000000000000e+00  1.6293766812729772e-08 6.5963021254403226e-11 0.0000000000000000e+00  1.6265961850089544e-08 9.0997009786564256e-11 0.0000000000000000e+00  1.6216799613263631e-08 1.2346465587456727e-10 0.0000000000000000e+00  1.6140368075617982e-08 1.6957595825778932e-10 0.0000000000000000e+00  1.6028547774134620e-08 2.3910783365281792e-10 0.0000000000000000e+00  1.5873910282335932e-08 3.4766727560263309e-10 0.0000000000000000e+00  1.5626169296949040e-08 5.6783805685685607e-10 0.0000000000000000e+00  1.4778054367976900e-08 1.4052959328647374e-09 0.0000000000000000e+00  1.1401451851053888e-08 3.9548587571327207e-09 0.0000000000000000e+00  1.5286757688137667e-12 -2.1731889735626394e-12 0.0000000000000000e+00  4.3535260550797855e-13 1.3023289863132175e-12 0.0000000000000000e+00  2.7800454400970248e-10 -2.6163278671017610e-09 0.0000000000000000e+00  1.7963403808766206e-09 -1.2935219214407486e-09 0.0000000000000000e+00  1.5215502314603993e-09 -8.1052196999223019e-10 0.0000000000000000e+00  1.7538914018372660e-09 -5.1284634551009105e-10 0.0000000000000000e+00  1.9634859954115441e-09 -3.2453235679793224e-10 0.0000000000000000e+00  2.0921156893406639e-09 -2.0638079056972563e-10 0.0000000000000000e+00  2.1736369651136525e-09 -1.2734407959278777e-10 0.0000000000000000e+00  2.2255671080472168e-09 -6.9798942695193481e-11 0.0000000000000000e+00  2.2550719828204231e-09 -2.3563653111701626e-11 0.0000000000000000e+00  2.2655486925695647e-09 1.7937909546503037e-11 0.0000000000000000e+00  2.2583433667855366e-09 5.9835109217581198e-11 0.0000000000000000e+00  2.2331854896523287e-09 1.0725085406447446e-10 0.0000000000000000e+00  2.1883571508040597e-09 1.6667202908620624e-10 0.0000000000000000e+00  2.1209571564419536e-09 2.4786204734373222e-10 0.0000000000000000e+00  2.0276665417738621e-09 3.6763002516149994e-10 0.0000000000000000e+00  1.9040055225718077e-09 5.6105410072692023e-10 0.0000000000000000e+00  1.7300399731408551e-09 9.1473840788132817e-10 0.0000000000000000e+00  1.4676249273196321e-09 1.5635468819004557e-09 0.0000000000000000e+00  1.3442814467696396e-09 2.0560183226880546e-09 0.0000000000000000e+00  1.1840218373972954e-12 -2.2766247062800904e-12 0.0000000000000000e+00  1.6067334812716295e-13 8.9146270106761831e-13 0.0000000000000000e+00  -3.7596218715936768e-10 -1.5105362803028083e-09 0.0000000000000000e+00  -4.6274892465122472e-10 -1.4184587947121870e-09 0.0000000000000000e+00  -5.6132484170875810e-10 -9.9114080624580671e-10 0.0000000000000000e+00  -5.7529428441185985e-10 -6.5767798051219111e-10 0.0000000000000000e+00  -5.2099896260332772e-10 -4.4310002781429412e-10 0.0000000000000000e+00  -4.5311380062106263e-10 -2.9701472867296037e-10 0.0000000000000000e+00  -3.9846200439155476e-10 -1.9341885612574813e-10 0.0000000000000000e+00  -3.6043655708182062e-10 -1.1523160417869042e-10 0.0000000000000000e+00  -3.3755687652736662e-10 -5.1189347167372130e-11 0.0000000000000000e+00  -3.2845530760797561e-10 6.5361188365359573e-12 0.0000000000000000e+00  -3.3235368668457929e-10 6.4225717406642322e-11 0.0000000000000000e+00  -3.4893333047152640e-10 1.2801502199279864e-10 0.0000000000000000e+00  -3.7801556507112864e-10 2.0519959327014865e-10 0.0000000000000000e+00  -4.1883576608998362e-10 3.0588847501260364e-10 0.0000000000000000e+00  -4.6852055881409811e-10 4.4559879043570103e-10 0.0000000000000000e+00  -5.1878361957695103e-10 6.4863686092435388e-10 0.0000000000000000e+00  -5.4429465349155286e-10 9.4179920294479498e-10 0.0000000000000000e+00  -4.5813009898800716e-10 1.2811369218470992e-09 0.0000000000000000e+00  -9.0345226321656575e-11 1.3000319935004156e-09 0.0000000000000000e+00  1.1317794139066099e-13 -1.2041677795811393e-12 0.0000000000000000e+00  9.8469478042718145e-14 6.9392738095029259e-13 0.0000000000000000e+00  -2.9429363320796949e-10 -1.0240601633371983e-09 0.0000000000000000e+00  -5.6916375472256311e-10 -1.1557432372441528e-09 0.0000000000000000e+00  -7.1357029354907518e-10 -9.1855906881559542e-10 0.0000000000000000e+00  -8.0046352646476474e-10 -6.7994355876054220e-10 0.0000000000000000e+00  -8.1521119492446773e-10 -4.8557236332279752e-10 0.0000000000000000e+00  -8.0230717082138590e-10 -3.3961316262305408e-10 0.0000000000000000e+00  -7.8152883333318264e-10 -2.2862962829474299e-10 0.0000000000000000e+00  -7.6260892821461513e-10 -1.4049294879406929e-10 0.0000000000000000e+00  -7.4953655125298436e-10 -6.6013050505092266e-11 0.0000000000000000e+00  -7.4351587379348848e-10 1.9878726476877652e-12 0.0000000000000000e+00  -7.4461868208404430e-10 6.9622835039909864e-11 0.0000000000000000e+00  -7.5224908566428799e-10 1.4281919243925927e-10 0.0000000000000000e+00  -7.6492743424501345e-10 2.2814092489385027e-10 0.0000000000000000e+00  -7.7946265402004125e-10 3.3355998467820443e-10 0.0000000000000000e+00  -7.8916053558491874e-10 4.6882746050602089e-10 0.0000000000000000e+00  -7.8002184046154051e-10 6.4345466444166920e-10 0.0000000000000000e+00  -7.2298005916209600e-10 8.5511348564965408e-10 0.0000000000000000e+00  -5.6682795368324539e-10 1.0511057164777225e-09 0.0000000000000000e+00  -2.7713244869322514e-10 1.0183559660207153e-09 0.0000000000000000e+00  5.4686247204727036e-14 -8.9001231848639776e-13 0.0000000000000000e+00  7.8059607120310917e-14 5.5199251030350326e-13 0.0000000000000000e+00  -2.1283824359058133e-10 -7.8930842275661520e-10 0.0000000000000000e+00  -4.3388872954082529e-10 -9.0961051737651486e-10 0.0000000000000000e+00  -5.9347988989776795e-10 -7.9300486613642230e-10 0.0000000000000000e+00  -6.9283076718821757e-10 -6.2735831441884434e-10 0.0000000000000000e+00  -7.4407134783382812e-10 -4.7413849766058942e-10 0.0000000000000000e+00  -7.6386343790601876e-10 -3.4561657282977290e-10 0.0000000000000000e+00  -7.6786895152065217e-10 -2.3963759915134384e-10 0.0000000000000000e+00  -7.6554465357655832e-10 -1.5069420579162722e-10 0.0000000000000000e+00  -7.6187267664880526e-10 -7.2806604359888936e-11 0.0000000000000000e+00  -7.5919514349695741e-10 -4.8380249928916039e-13 0.0000000000000000e+00  -7.5817302766731142e-10 7.1324754933806362e-11 0.0000000000000000e+00  -7.5818318914499118e-10 1.4752187543133245e-10 0.0000000000000000e+00  -7.5721294909381870e-10 2.3313246778526288e-10 0.0000000000000000e+00  -7.5124964144150327e-10 3.3332810869568856e-10 0.0000000000000000e+00  -7.3308274932944879e-10 4.5270854133516033e-10 0.0000000000000000e+00  -6.9051040721477844e-10 5.9263117717068789e-10 0.0000000000000000e+00  -6.0506840705825851e-10 7.4402181212293886e-10 0.0000000000000000e+00  -4.5657400658158118e-10 8.6802414681691113e-10 0.0000000000000000e+00  -2.4208447176909269e-10 8.1699506609601598e-10 0.0000000000000000e+00  9.5123611455499699e-14 -6.8675144817259284e-13 0.0000000000000000e+00  6.2552901369800597e-14 4.4129231873469065e-13 0.0000000000000000e+00  -1.5900831914401196e-10 -6.2784502630152509e-10 0.0000000000000000e+00  -3.2909843359863092e-10 -7.2992857842429741e-10 0.0000000000000000e+00  -4.6914985618132378e-10 -6.6444396431552864e-10 0.0000000000000000e+00  -5.6853259062695106e-10 -5.5126307332031078e-10 0.0000000000000000e+00  -6.3266951947815944e-10 -4.3457493444457427e-10 0.0000000000000000e+00  -6.6987420286534948e-10 -3.2756264923498953e-10 0.0000000000000000e+00  -6.8970516773356377e-10 -2.3308716642836587e-10 0.0000000000000000e+00  -6.9917521036205439e-10 -1.4951850156523624e-10 0.0000000000000000e+00  -7.0277103990852522e-10 -7.3714227780214203e-11 0.0000000000000000e+00  -7.0290477385037952e-10 -2.0736110457770635e-12 0.0000000000000000e+00  -7.0039526144544752e-10 6.9056378721367030e-11 0.0000000000000000e+00  -6.9469996424504874e-10 1.4324791210184029e-10 0.0000000000000000e+00  -6.8386595298797840e-10 2.2387849746502141e-10 0.0000000000000000e+00  -6.6422628243633049e-10 3.1379740140356528e-10 0.0000000000000000e+00  -6.2993947677252195e-10 4.1445987966518259e-10 0.0000000000000000e+00  -5.7273892119346464e-10 5.2406275510178635e-10 0.0000000000000000e+00  -4.8294527863076487e-10 6.3361689532499094e-10 0.0000000000000000e+00  -3.5350209434807083e-10 7.1452336908623824e-10 0.0000000000000000e+00  -1.8661009953641326e-10 6.5567208818000679e-10 0.0000000000000000e+00  8.6575624544324262e-14 -5.3713469657845518e-13 0.0000000000000000e+00  5.0419722097071822e-14 3.5428422754803319e-13 0.0000000000000000e+00  -1.2422686303095690e-10 -5.0338823284106010e-10 0.0000000000000000e+00  -2.5905753877533680e-10 -5.9109249741114073e-10 0.0000000000000000e+00  -3.7693346340446170e-10 -5.5037637573418276e-10 0.0000000000000000e+00  -4.6901512863700417e-10 -4.7125791818022191e-10 0.0000000000000000e+00  -5.3548181022139096e-10 -3.8282747759079309e-10 0.0000000000000000e+00  -5.8041183299834355e-10 -2.9621542992849060e-10 0.0000000000000000e+00  -6.0898957615536230e-10 -2.1526616219151624e-10 0.0000000000000000e+00  -6.2586828866509899e-10 -1.4040502038425355e-10 0.0000000000000000e+00  -6.3439379680897086e-10 -7.0360811638898032e-11 0.0000000000000000e+00  -6.3655377762599012e-10 -3.0768762198312444e-12 0.0000000000000000e+00  -6.3309067988972396e-10 6.3786045202312976e-11 0.0000000000000000e+00  -6.2358636442930871e-10 1.3254220843247693e-10 0.0000000000000000e+00  -6.0645966056288372e-10 2.0519516058583371e-10 0.0000000000000000e+00  -5.7890056869305731e-10 2.8302589478256427e-10 0.0000000000000000e+00  -5.3686930552735383e-10 3.6591475212084388e-10 0.0000000000000000e+00  -4.7545315957546161e-10 4.5123518114939685e-10 0.0000000000000000e+00  -3.9005455896995899e-10 5.3157672564225883e-10 0.0000000000000000e+00  -2.7870438263053971e-10 5.8563396367927841e-10 0.0000000000000000e+00  -1.4461309581780161e-10 5.2802154600371012e-10 0.0000000000000000e+00  6.8254967640656933e-14 -4.2798978103292512e-13 0.0000000000000000e+00  4.1678943039302539e-14 2.8408038192049038e-13 0.0000000000000000e+00  -1.0088982406044372e-10 -4.0390470767107367e-10 0.0000000000000000e+00  -2.1113445791839530e-10 -4.7817424688445010e-10 0.0000000000000000e+00  -3.1097533370659863e-10 -4.5184547428335910e-10 0.0000000000000000e+00  -3.9368384485539916e-10 -3.9485449006561210e-10 0.0000000000000000e+00  -4.5784709652063301e-10 -3.2771305192624793e-10 0.0000000000000000e+00  -5.0492046191945176e-10 -2.5859906248705625e-10 0.0000000000000000e+00  -5.3754412107390753e-10 -1.9107466814458148e-10 0.0000000000000000e+00  -5.5848380654003567e-10 -1.2633629650159641e-10 0.0000000000000000e+00  -5.6996507959920447e-10 -6.4182123030828358e-11 0.0000000000000000e+00  -5.7341839737505242e-10 -3.6420004412038747e-12 0.0000000000000000e+00  -5.6941347374007320e-10 5.6593274373769390e-11 0.0000000000000000e+00  -5.5766246100891417e-10 1.1784020192818721e-10 0.0000000000000000e+00  -5.3704141500702673e-10 1.8111110828294390e-10 0.0000000000000000e+00  -5.0564943446001140e-10 2.4675294653435907e-10 0.0000000000000000e+00  -4.6099174948048210e-10 3.1398887529675691e-10 0.0000000000000000e+00  -4.0043510106330661e-10 3.8029133642623871e-10 0.0000000000000000e+00  -3.2208243767012028e-10 4.3994949884820891e-10 0.0000000000000000e+00  -2.2602524203186041e-10 4.7707559057495129e-10 0.0000000000000000e+00  -1.1553384250366962e-10 4.2539253362112418e-10 0.0000000000000000e+00  5.4186559243267375e-14 -3.4348591046622010e-13 0.0000000000000000e+00  3.5445475281080465e-14 2.2566155337672891e-13 0.0000000000000000e+00  -8.4627894852127794e-11 -3.2190847274796367e-10 0.0000000000000000e+00  -1.7732167790311509e-10 -3.8360470560336122e-10 0.0000000000000000e+00  -2.6320288405542246e-10 -3.6628717498844161e-10 0.0000000000000000e+00  -3.3705535738001132e-10 -3.2451978469805142e-10 0.0000000000000000e+00  -3.9710566864253750e-10 -2.7346105394400401e-10 0.0000000000000000e+00  -4.4347196145846502e-10 -2.1895253025044429e-10 0.0000000000000000e+00  -4.7729078114062517e-10 -1.6387667854283388e-10 0.0000000000000000e+00  -5.0003329045153520e-10 -1.0956171376007753e-10 0.0000000000000000e+00  -5.1303148589066562e-10 -5.6333656173374567e-11 0.0000000000000000e+00  -5.1720632452496132e-10 -3.8977965941791400e-12 0.0000000000000000e+00  -5.1294694750815576e-10 4.8342477337365658e-11 0.0000000000000000e+00  -5.0007823773386035e-10 1.0100517601018956e-10 0.0000000000000000e+00  -4.7788983808901251e-10 1.5446242913404028e-10 0.0000000000000000e+00  -4.4523607349861435e-10 2.0856571381691371e-10 0.0000000000000000e+00  -4.0074830023317349e-10 2.6235591015211313e-10 0.0000000000000000e+00  -3.4321452349484374e-10 3.1371060086081484e-10 0.0000000000000000e+00  -2.7214969973001724e-10 3.5838285658019999e-10 0.0000000000000000e+00  -1.8848645135159779e-10 3.8455218831447724e-10 0.0000000000000000e+00  -9.5233025097095971e-11 3.4065853796004502e-10 0.0000000000000000e+00  4.4391444414138394e-14 -2.7500263889405550e-13 0.0000000000000000e+00  3.0965224636326440e-14 1.7565544798530411e-13 0.0000000000000000e+00  -7.3056944975481880e-11 -2.5233257902609421e-10 0.0000000000000000e+00  -1.5302860909163032e-10 -3.0250861485292672e-10 0.0000000000000000e+00  -2.2823832383792274e-10 -2.9111000384903035e-10 0.0000000000000000e+00  -2.9453413669686738e-10 -2.6043801567708097e-10 0.0000000000000000e+00  -3.5013874091273628e-10 -2.2185859211256184e-10 0.0000000000000000e+00  -3.9454084619569036e-10 -1.7956855187181575e-10 0.0000000000000000e+00  -4.2800938489663345e-10 -1.3575193545871932e-10 0.0000000000000000e+00  -4.5118596916305541e-10 -9.1603598280298947e-11 0.0000000000000000e+00  -4.6476277669568816e-10 -4.7646823422584919e-11 0.0000000000000000e+00  -4.6926440211697744e-10 -3.9562352458081384e-12 0.0000000000000000e+00  -4.6492887497593160e-10 3.9626983891826128e-11 0.0000000000000000e+00  -4.5166759304299220e-10 8.3285769011373356e-11 0.0000000000000000e+00  -4.2909239675837390e-10 1.2702474203748475e-10 0.0000000000000000e+00  -3.9661252121523290e-10 1.7047756073443904e-10 0.0000000000000000e+00  -3.5361498355932482e-10 2.1273033566300909e-10 0.0000000000000000e+00  -2.9973910466922938e-10 2.5212260945998186e-10 0.0000000000000000e+00  -2.3523300620210335e-10 2.8557948619486843e-10 0.0000000000000000e+00  -1.6134855760205742e-10 3.0439670007824884e-10 0.0000000000000000e+00  -8.0777466285923485e-11 2.6884380109870471e-10 0.0000000000000000e+00  3.7434115801319230e-14 -2.1776563113626258e-13 0.0000000000000000e+00  2.7773216560388643e-14 1.3169616976791417e-13 0.0000000000000000e+00  -6.4820748561732403e-11 -1.9166953203023090e-10 0.0000000000000000e+00  -1.3556646784257185e-10 -2.3134960491599284e-10 0.0000000000000000e+00  -2.0274254712607209e-10 -2.2406260202418122e-10 0.0000000000000000e+00  -2.6294333300157465e-10 -2.0191537546900581e-10 0.0000000000000000e+00  -3.1449014696996128e-10 -1.7339019701242832e-10 0.0000000000000000e+00  -3.5658327332789920e-10 -1.4150116527441455e-10 0.0000000000000000e+00  -3.8900778190098411e-10 -1.0784287007512529e-10 0.0000000000000000e+00  -4.1189384142089343e-10 -7.3382829751800426e-11 0.0000000000000000e+00  -4.2550720592011288e-10 -3.8658607690392361e-11 0.0000000000000000e+00  -4.3009163208433429e-10 -3.9062004237060624e-12 0.0000000000000000e+00  -4.2577287625913961e-10 3.0803430696552220e-11 0.0000000000000000e+00  -4.1252318223774109e-10 6.5420606630820995e-11 0.0000000000000000e+00  -3.9018299216332284e-10 9.9775958184704064e-11 0.0000000000000000e+00  -3.5853932187031901e-10 1.3345302131083808e-10 0.0000000000000000e+00  -3.1746090297068438e-10 1.6568407485958270e-10 0.0000000000000000e+00  -2.6708423907984133e-10 1.9523931438335990e-10 0.0000000000000000e+00  -2.0803349863321231e-10 2.1996751493541755e-10 0.0000000000000000e+00  -1.4165853748142786e-10 2.3363922518034222e-10 0.0000000000000000e+00  -7.0384794287206875e-11 2.0643549042507794e-10 0.0000000000000000e+00  3.2410825184017483e-14 -1.6861757921898779e-13 0.0000000000000000e+00  2.5591807435319342e-14 9.2013556370952293e-14 0.0000000000000000e+00  -5.9117449709472856e-11 -1.3735505972387925e-10 0.0000000000000000e+00  -1.2331836946031492e-10 -1.6742125993417602e-10 0.0000000000000000e+00  -1.8463452842052220e-10 -1.6318917746574701e-10 0.0000000000000000e+00  -2.4018088950050267e-10 -1.4794624177937553e-10 0.0000000000000000e+00  -2.8839246626183744e-10 -1.2786183417967521e-10 0.0000000000000000e+00  -3.2834442533699585e-10 -1.0505969743232685e-10 0.0000000000000000e+00  -3.5955964682256935e-10 -8.0657997633351073e-11 0.0000000000000000e+00  -3.8186474347372904e-10 -5.5377281238143593e-11 0.0000000000000000e+00  -3.9525641863844036e-10 -2.9673696622508109e-11 0.0000000000000000e+00  -3.9979280815253706e-10 -3.8125076915795770e-12 0.0000000000000000e+00  -3.9552264485251870e-10 2.2049644293196671e-11 0.0000000000000000e+00  -3.8245771461220982e-10 4.7772960916281112e-11 0.0000000000000000e+00  -3.6058930390348871e-10 7.3143188086178814e-11 0.0000000000000000e+00  -3.2994681580497625e-10 9.7792005087075009e-11 0.0000000000000000e+00  -2.9069358678459213e-10 1.2113840847229849e-10 0.0000000000000000e+00  -2.4324975837566520e-10 1.4233213325599932e-10 0.0000000000000000e+00  -1.8842886440665208e-10 1.5996323586886979e-10 0.0000000000000000e+00  -1.2759306697691811e-10 1.6985804808699015e-10 0.0000000000000000e+00  -6.2980376739727895e-11 1.5082604113326326e-10 0.0000000000000000e+00  2.8797871654131306e-14 -1.2528472654135095e-13 0.0000000000000000e+00  2.4254956049679565e-14 5.5197707138427807e-14 0.0000000000000000e+00  -5.5468300885008503e-11 -8.7390322497608346e-11 0.0000000000000000e+00  -1.1530433407413972e-10 -1.0854626001455256e-10 0.0000000000000000e+00  -1.7261881832512920e-10 -1.0676689447081595e-10 0.0000000000000000e+00  -2.2488411193199451e-10 -9.7425033489285593e-11 0.0000000000000000e+00  -2.7063193432615940e-10 -8.4736988628986460e-11 0.0000000000000000e+00  -3.0889019983845588e-