<?xml version="1.0"?>
<VTKFile type="UnstructuredGrid"  version="0.1"  >
<UnstructuredGrid>
<Piece  NumberOfPoints="651" NumberOfCells="1200">
<Points>
<DataArray  type="Float64"  NumberOfComponents="3"  format="ascii">0 0 0  50000 0 0  100000 0 0  150000 0 0  200000 0 0  250000 0 0  300000 0 0  350000 0 0  400000 0 0  450000 0 0  500000 0 0  550000 0 0  600000 0 0  650000 0 0  700000 0 0  750000 0 0  800000 0 0  850000 0 0  900000 0 0  950000 0 0  1000000 0 0  0 50000 0  50000 50000 0  100000 50000 0  150000 50000 0  200000 50000 0  250000 50000 0  300000 50000 0  350000 50000 0  400000 50000 0  450000 50000 0  500000 50000 0  550000 50000 0  600000 50000 0  650000 50000 0  700000 50000 0  750000 50000 0  800000 50000 0  850000 50000 0  900000 50000 0  950000 50000 0  1000000 50000 0  0 100000 0  50000 100000 0  100000 100000 0  150000 100000 0  200000 100000 0  250000 100000 0  300000 100000 0  350000 100000 0  400000 100000 0  450000 100000 0  500000 100000 0  550000 100000 0  600000 100000 0  650000 100000 0  700000 100000 0  750000 100000 0  800000 100000 0  850000 100000 0  900000 100000 0  950000 100000 0  1000000 100000 0  0 150000 0  50000 150000 0  100000 150000 0  150000 150000 0  200000 150000 0  250000 150000 0  300000 150000 0  350000 150000 0  400000 150000 0  450000 150000 0  500000 150000 0  550000 150000 0  600000 150000 0  650000 150000 0  700000 150000 0  750000 150000 0  800000 150000 0  850000 150000 0  900000 150000 0  950000 150000 0  1000000 150000 0  0 200000 0  50000 200000 0  100000 200000 0  150000 200000 0  200000 200000 0  250000 200000 0  300000 200000 0  350000 200000 0  400000 200000 0  450000 200000 0  500000 200000 0  550000 200000 0  600000 200000 0  650000 200000 0  700000 200000 0  750000 200000 0  800000 200000 0  850000 200000 0  900000 200000 0  950000 200000 0  1000000 200000 0  0 250000 0  50000 250000 0  100000 250000 0  150000 250000 0  200000 250000 0  250000 250000 0  300000 250000 0  350000 250000 0  400000 250000 0  450000 250000 0  500000 250000 0  550000 250000 0  600000 250000 0  650000 250000 0  700000 250000 0  750000 250000 0  800000 250000 0  850000 250000 0  900000 250000 0  950000 250000 0  1000000 250000 0  0 300000 0  50000 300000 0  100000 300000 0  150000 300000 0  200000 300000 0  250000 300000 0  300000 300000 0  350000 300000 0  400000 300000 0  450000 300000 0  500000 300000 0  550000 300000 0  600000 300000 0  650000 300000 0  700000 300000 0  750000 300000 0  800000 300000 0  850000 300000 0  900000 300000 0  950000 300000 0  1000000 300000 0  0 350000 0  50000 350000 0  100000 350000 0  150000 350000 0  200000 350000 0  250000 350000 0  300000 350000 0  350000 350000 0  400000 350000 0  450000 350000 0  500000 350000 0  550000 350000 0  600000 350000 0  650000 350000 0  700000 350000 0  750000 350000 0  800000 350000 0  850000 350000 0  900000 350000 0  950000 350000 0  1000000 350000 0  0 400000 0  50000 400000 0  100000 400000 0  150000 400000 0  200000 400000 0  250000 400000 0  300000 400000 0  350000 400000 0  400000 400000 0  450000 400000 0  500000 400000 0  550000 400000 0  600000 400000 0  650000 400000 0  700000 400000 0  750000 400000 0  800000 400000 0  850000 400000 0  900000 400000 0  950000 400000 0  1000000 400000 0  0 450000 0  50000 450000 0  100000 450000 0  150000 450000 0  200000 450000 0  250000 450000 0  300000 450000 0  350000 450000 0  400000 450000 0  450000 450000 0  500000 450000 0  550000 450000 0  600000 450000 0  650000 450000 0  700000 450000 0  750000 450000 0  800000 450000 0  850000 450000 0  900000 450000 0  950000 450000 0  1000000 450000 0  0 500000 0  50000 500000 0  100000 500000 0  150000 500000 0  200000 500000 0  250000 500000 0  300000 500000 0  350000 500000 0  400000 500000 0  450000 500000 0  500000 500000 0  550000 500000 0  600000 500000 0  650000 500000 0  700000 500000 0  750000 500000 0  800000 500000 0  850000 500000 0  900000 500000 0  950000 500000 0  1000000 500000 0  0 550000 0  50000 550000 0  100000 550000 0  150000 550000 0  200000 550000 0  250000 550000 0  300000 550000 0  350000 550000 0  400000 550000 0  450000 550000 0  500000 550000 0  550000 550000 0  600000 550000 0  650000 550000 0  700000 550000 0  750000 550000 0  800000 550000 0  850000 550000 0  900000 550000 0  950000 550000 0  1000000 550000 0  0 600000 0  50000 600000 0  100000 600000 0  150000 600000 0  200000 600000 0  250000 600000 0  300000 600000 0  350000 600000 0  400000 600000 0  450000 600000 0  500000 600000 0  550000 600000 0  600000 600000 0  650000 600000 0  700000 600000 0  750000 600000 0  800000 600000 0  850000 600000 0  900000 600000 0  950000 600000 0  1000000 600000 0  0 650000 0  50000 650000 0  100000 650000 0  150000 650000 0  200000 650000 0  250000 650000 0  300000 650000 0  350000 650000 0  400000 650000 0  450000 650000 0  500000 650000 0  550000 650000 0  600000 650000 0  650000 650000 0  700000 650000 0  750000 650000 0  800000 650000 0  850000 650000 0  900000 650000 0  950000 650000 0  1000000 650000 0  0 700000 0  50000 700000 0  100000 700000 0  150000 700000 0  200000 700000 0  250000 700000 0  300000 700000 0  350000 700000 0  400000 700000 0  450000 700000 0  500000 700000 0  550000 700000 0  600000 700000 0  650000 700000 0  700000 700000 0  750000 700000 0  800000 700000 0  850000 700000 0  900000 700000 0  950000 700000 0  1000000 700000 0  0 750000 0  50000 750000 0  100000 750000 0  150000 750000 0  200000 750000 0  250000 750000 0  300000 750000 0  350000 750000 0  400000 750000 0  450000 750000 0  500000 750000 0  550000 750000 0  600000 750000 0  650000 750000 0  700000 750000 0  750000 750000 0  800000 750000 0  850000 750000 0  900000 750000 0  950000 750000 0  1000000 750000 0  0 800000 0  50000 800000 0  100000 800000 0  150000 800000 0  200000 800000 0  250000 800000 0  300000 800000 0  350000 800000 0  400000 800000 0  450000 800000 0  500000 800000 0  550000 800000 0  600000 800000 0  650000 800000 0  700000 800000 0  750000 800000 0  800000 800000 0  850000 800000 0  900000 800000 0  950000 800000 0  1000000 800000 0  0 850000 0  50000 850000 0  100000 850000 0  150000 850000 0  200000 850000 0  250000 850000 0  300000 850000 0  350000 850000 0  400000 850000 0  450000 850000 0  500000 850000 0  550000 850000 0  600000 850000 0  650000 850000 0  700000 850000 0  750000 850000 0  800000 850000 0  850000 850000 0  900000 850000 0  950000 850000 0  1000000 850000 0  0 900000 0  50000 900000 0  100000 900000 0  150000 900000 0  200000 900000 0  250000 900000 0  300000 900000 0  350000 900000 0  400000 900000 0  450000 900000 0  500000 900000 0  550000 900000 0  600000 900000 0  650000 900000 0  700000 900000 0  750000 900000 0  800000 900000 0  850000 900000 0  900000 900000 0  950000 900000 0  1000000 900000 0  0 950000 0  50000 950000 0  100000 950000 0  150000 950000 0  200000 950000 0  250000 950000 0  300000 950000 0  350000 950000 0  400000 950000 0  450000 950000 0  500000 950000 0  550000 950000 0  600000 950000 0  650000 950000 0  700000 950000 0  750000 950000 0  800000 950000 0  850000 950000 0  900000 950000 0  950000 950000 0  1000000 950000 0  0 1000000 0  50000 1000000 0  100000 1000000 0  150000 1000000 0  200000 1000000 0  250000 1000000 0  300000 1000000 0  350000 1000000 0  400000 1000000 0  450000 1000000 0  500000 1000000 0  550000 1000000 0  600000 1000000 0  650000 1000000 0  700000 1000000 0  750000 1000000 0  800000 1000000 0  850000 1000000 0  900000 1000000 0  950000 1000000 0  1000000 1000000 0  0 1050000 0  50000 1050000 0  100000 1050000 0  150000 1050000 0  200000 1050000 0  250000 1050000 0  300000 1050000 0  350000 1050000 0  400000 1050000 0  450000 1050000 0  500000 1050000 0  550000 1050000 0  600000 1050000 0  650000 1050000 0  700000 1050000 0  750000 1050000 0  800000 1050000 0  850000 1050000 0  900000 1050000 0  950000 1050000 0  1000000 1050000 0  0 1100000 0  50000 1100000 0  100000 1100000 0  150000 1100000 0  200000 1100000 0  250000 1100000 0  300000 1100000 0  350000 1100000 0  400000 1100000 0  450000 1100000 0  500000 1100000 0  550000 1100000 0  600000 1100000 0  650000 1100000 0  700000 1100000 0  750000 1100000 0  800000 1100000 0  850000 1100000 0  900000 1100000 0  950000 1100000 0  1000000 1100000 0  0 1150000 0  50000 1150000 0  100000 1150000 0  150000 1150000 0  200000 1150000 0  250000 1150000 0  300000 1150000 0  350000 1150000 0  400000 1150000 0  450000 1150000 0  500000 1150000 0  550000 1150000 0  600000 1150000 0  650000 1150000 0  700000 1150000 0  750000 1150000 0  800000 1150000 0  850000 1150000 0  900000 1150000 0  950000 1150000 0  1000000 1150000 0  0 1200000 0  50000 1200000 0  100000 1200000 0  150000 1200000 0  200000 1200000 0  250000 1200000 0  300000 1200000 0  350000 1200000 0  400000 1200000 0  450000 1200000 0  500000 1200000 0  550000 1200000 0  600000 1200000 0  650000 1200000 0  700000 1200000 0  750000 1200000 0  800000 1200000 0  850000 1200000 0  900000 1200000 0  950000 1200000 0  1000000 1200000 0  0 1250000 0  50000 1250000 0  100000 1250000 0  150000 1250000 0  200000 1250000 0  250000 1250000 0  300000 1250000 0  350000 1250000 0  400000 1250000 0  450000 1250000 0  500000 1250000 0  550000 1250000 0  600000 1250000 0  650000 1250000 0  700000 1250000 0  750000 1250000 0  800000 1250000 0  850000 1250000 0  900000 1250000 0  950000 1250000 0  1000000 1250000 0  0 1300000 0  50000 1300000 0  100000 1300000 0  150000 1300000 0  200000 1300000 0  250000 1300000 0  300000 1300000 0  350000 1300000 0  400000 1300000 0  450000 1300000 0  500000 1300000 0  550000 1300000 0  600000 1300000 0  650000 1300000 0  700000 1300000 0  750000 1300000 0  800000 1300000 0  850000 1300000 0  900000 1300000 0  950000 1300000 0  1000000 1300000 0  0 1350000 0  50000 1350000 0  100000 1350000 0  150000 1350000 0  200000 1350000 0  250000 1350000 0  300000 1350000 0  350000 1350000 0  400000 1350000 0  450000 1350000 0  500000 1350000 0  550000 1350000 0  600000 1350000 0  650000 1350000 0  700000 135
[...]
<PointData  Vectors="f_5995"> 
<DataArray  type="Float64"  Name="f_5995"  NumberOfComponents="3" format="ascii">-1.6368241321673761e-13 1.3052335673689239e-12 0.0000000000000000e+00  8.0000798627299629e-08 7.7427227262092636e-13 0.0000000000000000e+00  8.0002719346616462e-08 1.6618770684039878e-12 0.0000000000000000e+00  8.0001272305003684e-08 5.5127067731620418e-13 0.0000000000000000e+00  8.0000813167588208e-08 2.4030646011152098e-14 0.0000000000000000e+00  8.0000758735424801e-08 8.9112695903268190e-15 0.0000000000000000e+00  8.0000712200257558e-08 4.1749607324232031e-14 0.0000000000000000e+00  8.0000659526910354e-08 3.5876623211334066e-14 0.0000000000000000e+00  8.0000624095803584e-08 2.0086180463328096e-14 0.0000000000000000e+00  8.0000607604688569e-08 7.6002907946081658e-15 0.0000000000000000e+00  8.0000607011318868e-08 -2.7138323741605926e-15 0.0000000000000000e+00  8.0000621307913726e-08 -1.4979213706988900e-14 0.0000000000000000e+00  8.0000652317951536e-08 -3.4680609068310124e-14 0.0000000000000000e+00  8.0000711596142860e-08 -5.8117073365823617e-14 0.0000000000000000e+00  8.0000834803077598e-08 -1.9019558884769498e-14 0.0000000000000000e+00  8.0001003728652152e-08 1.7834758503403382e-13 0.0000000000000000e+00  8.0000825565988199e-08 -5.3385965717278865e-13 0.0000000000000000e+00  8.0000720242581918e-08 -7.4110837048056953e-12 0.0000000000000000e+00  8.0001860444191448e-08 -1.4134638591055022e-11 0.0000000000000000e+00  7.9901128994726743e-08 9.2154990538415736e-11 0.0000000000000000e+00  -1.2191276096308263e-10 1.2120698847518502e-10 0.0000000000000000e+00  -2.7103007005066230e-13 1.2625533907103555e-12 0.0000000000000000e+00  1.2094786682106591e-08 -1.1500545047445704e-09 0.0000000000000000e+00  1.3957753878277793e-08 -9.1241537382720773e-10 0.0000000000000000e+00  1.5620914556581840e-08 -4.0957281316535754e-10 0.0000000000000000e+00  1.6199954727317021e-08 -2.4813693660639083e-10 0.0000000000000000e+00  1.6411638333537982e-08 -1.5743276539736651e-10 0.0000000000000000e+00  1.6527944794424442e-08 -9.8331372252244516e-11 0.0000000000000000e+00  1.6602948786630339e-08 -5.8960934657578025e-11 0.0000000000000000e+00  1.6649954327428701e-08 -3.0593875491780512e-11 0.0000000000000000e+00  1.6675465084076326e-08 -7.7916154831619358e-12 0.0000000000000000e+00  1.6682933135416312e-08 1.2913712663641198e-11 0.0000000000000000e+00  1.6673480318421692e-08 3.4249970663001165e-11 0.0000000000000000e+00  1.6646197879650226e-08 5.9072170311100982e-11 0.0000000000000000e+00  1.6598013405569290e-08 9.1243359933481949e-11 0.0000000000000000e+00  1.6523279243766829e-08 1.3682437092683652e-10 0.0000000000000000e+00  1.6414398578019325e-08 2.0526385554889075e-10 0.0000000000000000e+00  1.6264278931449404e-08 3.1245245788743701e-10 0.0000000000000000e+00  1.6019473125624593e-08 5.3664616767811808e-10 0.0000000000000000e+00  1.5150366577654388e-08 1.3996264190455933e-09 0.0000000000000000e+00  1.1603312946331619e-08 3.9712638581834518e-09 0.0000000000000000e+00  -9.2564597159052110e-11 9.8491445677644079e-11 0.0000000000000000e+00  1.1680374174293561e-12 2.3983708655726376e-12 0.0000000000000000e+00  3.4877034982601562e-10 -2.6253866942931337e-09 0.0000000000000000e+00  1.9548456484329473e-09 -1.2866937357140356e-09 0.0000000000000000e+00  1.6724585070854331e-09 -8.0990638084070921e-10 0.0000000000000000e+00  1.9027906628720541e-09 -5.1629526429164281e-10 0.0000000000000000e+00  2.1146382124546036e-09 -3.3064285132761546e-10 0.0000000000000000e+00  2.2435367026085352e-09 -2.1400148057026202e-10 0.0000000000000000e+00  2.3244379668586784e-09 -1.3581070880646942e-10 0.0000000000000000e+00  2.3757888003805471e-09 -7.8827872056243319e-11 0.0000000000000000e+00  2.4049557689647734e-09 -3.3032227942944514e-11 0.0000000000000000e+00  2.4153416558432946e-09 8.0809887213880892e-12 0.0000000000000000e+00  2.4082916126621097e-09 4.9592078458705058e-11 0.0000000000000000e+00  2.3835613181684104e-09 9.6573503314750128e-11 0.0000000000000000e+00  2.3395006246630461e-09 1.5544107053700544e-10 0.0000000000000000e+00  2.2733362110700224e-09 2.3584861794134393e-10 0.0000000000000000e+00  2.1818765901833030e-09 3.5451066492576355e-10 0.0000000000000000e+00  2.0601827927494760e-09 5.4676088136132409e-10 0.0000000000000000e+00  1.8847758218589711e-09 9.0034713490739440e-10 0.0000000000000000e+00  1.6040737989861148e-09 1.5496874413323452e-09 0.0000000000000000e+00  1.4071208385577229e-09 2.0359718494786853e-09 0.0000000000000000e+00  1.3810842318391221e-11 -1.8664704152813145e-12 0.0000000000000000e+00  4.6166575441189519e-13 1.0714474294925166e-12 0.0000000000000000e+00  -3.6389332267530168e-10 -1.5006703182878572e-09 0.0000000000000000e+00  -4.1867007507030662e-10 -1.4082084454008946e-09 0.0000000000000000e+00  -5.1391478231694213e-10 -9.8295587779951256e-10 0.0000000000000000e+00  -5.2621592112858743e-10 -6.5309567863775000e-10 0.0000000000000000e+00  -4.7318538166674473e-10 -4.4089113949898878e-10 0.0000000000000000e+00  -4.0556960838245953e-10 -2.9627813371370752e-10 0.0000000000000000e+00  -3.5101662765330150e-10 -1.9370582377388776e-10 0.0000000000000000e+00  -3.1316460342216474e-10 -1.1628368895476401e-10 0.0000000000000000e+00  -2.9041623586147154e-10 -5.2861411248771887e-11 0.0000000000000000e+00  -2.8132850244539693e-10 4.3095233571454062e-12 0.0000000000000000e+00  -2.8509536153163547e-10 6.1448237258487429e-11 0.0000000000000000e+00  -3.0138156624825358e-10 1.2463045287829755e-10 0.0000000000000000e+00  -3.2999484784567847e-10 2.0108211782664103e-10 0.0000000000000000e+00  -3.7018329649173111e-10 3.0082838894491820e-10 0.0000000000000000e+00  -4.1921575296058753e-10 4.3929393458799560e-10 0.0000000000000000e+00  -4.6938518930524495e-10 6.4064594485545317e-10 0.0000000000000000e+00  -4.9691910385430266e-10 9.3107469469566454e-10 0.0000000000000000e+00  -4.1750642849156084e-10 1.2642770983129569e-09 0.0000000000000000e+00  -6.4338586042865435e-11 1.2740383104914828e-09 0.0000000000000000e+00  7.2922011576391929e-12 -6.1949427382263609e-13 0.0000000000000000e+00  3.6788346520413093e-14 6.1987186788746371e-13 0.0000000000000000e+00  -2.9044097907534107e-10 -1.0076143191559451e-09 0.0000000000000000e+00  -5.5745703873540959e-10 -1.1459128943253728e-09 0.0000000000000000e+00  -6.9601152847848176e-10 -9.0998018263231977e-10 0.0000000000000000e+00  -7.8293422029053684e-10 -6.7396376787299414e-10 0.0000000000000000e+00  -7.9736432338482910e-10 -4.8141276996399038e-10 0.0000000000000000e+00  -7.8449536704032769e-10 -3.3680145442163773e-10 0.0000000000000000e+00  -7.6381716660172466e-10 -2.2685281105642144e-10 0.0000000000000000e+00  -7.4494815820995527e-10 -1.3954916449580367e-10 0.0000000000000000e+00  -7.3189222682144099e-10 -6.5782991345605837e-11 0.0000000000000000e+00  -7.2584127668267463e-10 1.5605743546204657e-12 0.0000000000000000e+00  -7.2685029546565254e-10 6.8537800674808463e-11 0.0000000000000000e+00  -7.3432056958193481e-10 1.4101869768483522e-10 0.0000000000000000e+00  -7.4679300740521769e-10 2.2550311694242617e-10 0.0000000000000000e+00  -7.6114498457403652e-10 3.2988431107424092e-10 0.0000000000000000e+00  -7.7085238730827516e-10 4.6379876713508982e-10 0.0000000000000000e+00  -7.6224918138720887e-10 6.3652345682129772e-10 0.0000000000000000e+00  -7.0666199406402240e-10 8.4512232801573838e-10 0.0000000000000000e+00  -5.5279858222722296e-10 1.0357461854115051e-09 0.0000000000000000e+00  -2.6593313127779533e-10 9.9732571721410168e-10 0.0000000000000000e+00  5.1263561783226787e-13 -6.8419235927635738e-13 0.0000000000000000e+00  3.2433909189933602e-14 5.4080627428009080e-13 0.0000000000000000e+00  -2.1102193433802633e-10 -7.7509061151922482e-10 0.0000000000000000e+00  -4.2858813543174090e-10 -8.9947645381095817e-10 0.0000000000000000e+00  -5.8543228838039182e-10 -7.8551418865498547e-10 0.0000000000000000e+00  -6.8374240880769022e-10 -6.2154989323883532e-10 0.0000000000000000e+00  -7.3453582440240848e-10 -4.6976680340944331e-10 0.0000000000000000e+00  -7.5414723368970984e-10 -3.4243259849738193e-10 0.0000000000000000e+00  -7.5804744050094580e-10 -2.3743186284654773e-10 0.0000000000000000e+00  -7.5567220917935304e-10 -1.4932371717960040e-10 0.0000000000000000e+00  -7.5196310049792676e-10 -7.2180886970121401e-11 0.0000000000000000e+00  -7.4924422004765674e-10 -5.6084453272881602e-13 0.0000000000000000e+00  -7.4817327945850942e-10 7.0539952407917121e-11 0.0000000000000000e+00  -7.4813720220258407e-10 1.4597561423772477e-10 0.0000000000000000e+00  -7.4715588123569822e-10 2.3071693002718491e-10 0.0000000000000000e+00  -7.4128601168618073e-10 3.2987009474400107e-10 0.0000000000000000e+00  -7.2343680139823659e-10 4.4794461785007912e-10 0.0000000000000000e+00  -6.8155936990570137e-10 5.8614824047080081e-10 0.0000000000000000e+00  -5.9726332930007948e-10 7.3513264692693184e-10 0.0000000000000000e+00  -4.5018647948885305e-10 8.5570063373888518e-10 0.0000000000000000e+00  -2.3737700238417424e-10 8.0165886304228105e-10 0.0000000000000000e+00  -1.5714868110825044e-13 -8.2967644044095910e-13 0.0000000000000000e+00  6.2988652370686820e-14 4.5913869487546299e-13 0.0000000000000000e+00  -1.5784736739249238e-10 -6.1669050580630076e-10 0.0000000000000000e+00  -3.2559823482985059e-10 -7.2090816564499764e-10 0.0000000000000000e+00  -4.6400622180993063e-10 -6.5781099222840109e-10 0.0000000000000000e+00  -5.6230562066605878e-10 -5.4600740880244358e-10 0.0000000000000000e+00  -6.2588568007848609e-10 -4.3048879009449982e-10 0.0000000000000000e+00  -6.6272750459815814e-10 -3.2448096505499687e-10 0.0000000000000000e+00  -6.8234401489814681e-10 -2.3089279737667171e-10 0.0000000000000000e+00  -6.9168070392774146e-10 -1.4811771979480821e-10 0.0000000000000000e+00  -6.9519489144611346e-10 -7.3044243644722419e-11 0.0000000000000000e+00  -6.9528434706333723e-10 -2.1059948022053487e-12 0.0000000000000000e+00  -6.9276544917845763e-10 6.8314288604977089e-11 0.0000000000000000e+00  -6.8710807245883666e-10 1.4175117704482024e-10 0.0000000000000000e+00  -6.7638993196276960e-10 2.2154198971451742e-10 0.0000000000000000e+00  -6.5699683598149319e-10 3.1049219981982120e-10 0.0000000000000000e+00  -6.2316019100690273e-10 4.1000817443678715e-10 0.0000000000000000e+00  -5.6668529466054644e-10 5.1822861462747550e-10 0.0000000000000000e+00  -4.7791506420290992e-10 6.2608047648590147e-10 0.0000000000000000e+00  -3.4972407699477367e-10 7.0484099302044668e-10 0.0000000000000000e+00  -1.8427784097734965e-10 6.4422166455392977e-10 0.0000000000000000e+00  4.7692886996110367e-14 -6.2438136185618983e-13 0.0000000000000000e+00  5.7891750161072302e-14 3.6960018323410353e-13 0.0000000000000000e+00  -1.2334142645862589e-10 -4.9459555764714151e-10 0.0000000000000000e+00  -2.5640696017475664e-10 -5.8362151707097986e-10 0.0000000000000000e+00  -3.7299398785146604e-10 -5.4461467298133725e-10 0.0000000000000000e+00  -4.6414980561376580e-10 -4.6666266609254026e-10 0.0000000000000000e+00  -5.2998632346441862e-10 -3.7917001886426451e-10 0.0000000000000000e+00  -5.7448788290444146e-10 -2.9340526352695322e-10 0.0000000000000000e+00  -6.0277666317926824e-10 -2.1323488575006773e-10 0.0000000000000000e+00  -6.1946793557369094e-10 -1.3909653698670871e-10 0.0000000000000000e+00  -6.2788351446866514e-10 -6.9736374840836405e-11 0.0000000000000000e+00  -6.2999814244892867e-10 -3.1193599634503971e-12 0.0000000000000000e+00  -6.2655325236203282e-10 6.3069017509634431e-11 0.0000000000000000e+00  -6.1714139064973578e-10 1.3111692859973737e-10 0.0000000000000000e+00  -6.0020465902463808e-10 2.0300205549352294e-10 0.0000000000000000e+00  -5.7296850954749097e-10 2.7998208403621995e-10 0.0000000000000000e+00  -5.3143581887826385e-10 3.6192035833125119e-10 0.0000000000000000e+00  -4.7073089515879215e-10 4.4618143413827362e-10 0.0000000000000000e+00  -3.8626695161829332e-10 5.2533220151569966e-10 0.0000000000000000e+00  -2.7602947623311621e-10 5.7795784586323375e-10 0.0000000000000000e+00  -1.4311578559256330e-10 5.1914227037143967e-10 0.0000000000000000e+00  8.7960839534110663e-14 -4.6316469156028934e-13 0.0000000000000000e+00  4.5267700634304800e-14 2.9435930714897809e-13 0.0000000000000000e+00  -1.0016857267143504e-10 -3.9690552275339576e-10 0.0000000000000000e+00  -2.0900710565973226e-10 -4.7211210560091477e-10 0.0000000000000000e+00  -3.0776754084273442e-10 -4.4700487202575947e-10 0.0000000000000000e+00  -3.8965260782812283e-10 -3.9092843596707104e-10 0.0000000000000000e+00  -4.5319388637332087e-10 -3.2454276902671787e-10 0.0000000000000000e+00  -4.9981256166497342e-10 -2.5613088969421403e-10 0.0000000000000000e+00  -5.3211191542670710e-10 -1.8927270271548776e-10 0.0000000000000000e+00  -5.5283476147088486e-10 -1.2517116598387146e-10 0.0000000000000000e+00  -5.6418932503883281e-10 -6.3632414231432303e-11 0.0000000000000000e+00  -5.6759724511865659e-10 -3.6989369590175283e-12 0.0000000000000000e+00  -5.6362756499964447e-10 5.5923061493731340e-11 0.0000000000000000e+00  -5.5200017249357193e-10 1.1653407205149932e-10 0.0000000000000000e+00  -5.3160691089765027e-10 1.7913232561854126e-10 0.0000000000000000e+00  -5.0056897047525530e-10 2.4405596285679142e-10 0.0000000000000000e+00  -4.5641573222785848e-10 3.1052858061924612e-10 0.0000000000000000e+00  -3.9653261964418739e-10 3.7603151158041045e-10 0.0000000000000000e+00  -3.1902313785965112e-10 4.3484177767347045e-10 0.0000000000000000e+00  -2.2393076814553206e-10 4.7095342572524701e-10 0.0000000000000000e+00  -1.1440121302137745e-10 4.1838164514952204e-10 0.0000000000000000e+00  6.6197028402319040e-14 -3.6374025563977378e-13 0.0000000000000000e+00  3.6799770032929555e-14 2.3313979823003497e-13 0.0000000000000000e+00  -8.4019128756936511e-11 -3.1634517682663670e-10 0.0000000000000000e+00  -1.7555403859284825e-10 -3.7873809024396353e-10 0.0000000000000000e+00  -2.6050903730857993e-10 -3.6232523639459777e-10 0.0000000000000000e+00  -3.3361943759135901e-10 -3.2125142044683725e-10 0.0000000000000000e+00  -3.9308056707476195e-10 -2.7079295013736142e-10 0.0000000000000000e+00  -4.3899300001433760e-10 -2.1685508365480680e-10 0.0000000000000000e+00  -4.7247706164571454e-10 -1.6233552341304479e-10 0.0000000000000000e+00  -4.9499002802973880e-10 -1.0856420667750462e-10 0.0000000000000000e+00  -5.0785380362825377e-10 -5.5870137962354764e-11 0.0000000000000000e+00  -5.1198376602894593e-10 -3.9648977899938418e-12 0.0000000000000000e+00  -5.0776875232354404e-10 4.7739737741544075e-11 0.0000000000000000e+00  -4.9503870930150876e-10 9.9853354431346016e-11 0.0000000000000000e+00  -4.7309302841272604e-10 1.5274216167981185e-10 0.0000000000000000e+00  -4.4079873945349370e-10 2.0625720422840947e-10 0.0000000000000000e+00  -3.9679972164746151e-10 2.5944697088548114e-10 0.0000000000000000e+00  -3.3989137930758437e-10 3.1020121872983478e-10 0.0000000000000000e+00  -2.6958143135271609e-10 3.5425984600300174e-10 0.0000000000000000e+00  -1.8675538924684851e-10 3.7968806487255455e-10 0.0000000000000000e+00  -9.4315991652990227e-11 3.3512001110076886e-10 0.0000000000000000e+00  4.8719501876799371e-14 -2.8978600108587320e-13 0.0000000000000000e+00  3.1819407622686652e-14 1.8136809333899723e-13 0.0000000000000000e+00  -7.2525338572069766e-11 -2.4796884937615017e-10 0.0000000000000000e+00  -1.5151786668355968e-10 -2.9866623235978553e-10 0.0000000000000000e+00  -2.2591973700282410e-10 -2.8794854267922568e-10 0.0000000000000000e+00  -2.9154437436941381e-10 -2.5779918035467111e-10 0.0000000000000000e+00  -3.4659749055502450e-10 -2.1968561399619449e-10 0.0000000000000000e+00  -3.9056091814990143e-10 -1.7784922816419179e-10 0.0000000000000000e+00  -4.2369750659743289e-10 -1.3448400192512364e-10 0.0000000000000000e+00  -4.4664247008420695e-10 -9.0784397813413788e-11 0.0000000000000000e+00  -4.6008288649257132e-10 -4.7273759730293194e-11 0.0000000000000000e+00  -4.6454044179331090e-10 -4.0289763476423874e-12 0.0000000000000000e+00  -4.6025318981798871e-10 3.9105086748532075e-11 0.0000000000000000e+00  -4.4713553953819877e-10 8.2307983204126762e-11 0.0000000000000000e+00  -4.2480472115791447e-10 1.2558331629335053e-10 0.0000000000000000e+00  -3.9267634494687891e-10 1.6856826401142559e-10 0.0000000000000000e+00  -3.5014254285500637e-10 2.1035823258248585e-10 0.0000000000000000e+00  -2.9684305525034657e-10 2.4930342429989383e-10 0.0000000000000000e+00  -2.3301470009530072e-10 2.8231508113804518e-10 0.0000000000000000e+00  -1.5986757649141268e-10 3.0058850726569511e-10 0.0000000000000000e+00  -8.0010084493824952e-11 2.6452294102139631e-10 0.0000000000000000e+00  3.9417630000440552e-14 -2.2862638044723837e-13 0.0000000000000000e+00  2.8603631189767498e-14 1.3595219194568878e-13 0.0000000000000000e+00  -6.4340161660728496e-11 -1.8833997393267059e-10 0.0000000000000000e+00  -1.3424056494285136e-10 -2.2840403868358544e-10 0.0000000000000000e+00  -2.0069950917783167e-10 -2.2162658229710269e-10 0.0000000000000000e+00  -2.6028809459298395e-10 -1.9986902403156300e-10 0.0000000000000000e+00  -3.1131940939256646e-10 -1.7169571436470518e-10 0.0000000000000000e+00  -3.5299349016334317e-10 -1.4015572791851865e-10 0.0000000000000000e+00  -3.8509505109042424e-10 -1.0685005907848790e-10 0.0000000000000000e+00  -4.0775282658094045e-10 -7.2745006992987603e-11 0.0000000000000000e+00  -4.2123091016690201e-10 -3.8376758884316385e-11 0.0000000000000000e+00  -4.2577209243821642e-10 -3.9813565413394375e-12 0.0000000000000000e+00  -4.2150240197600946e-10 3.0369348496406439e-11 0.0000000000000000e+00  -4.0839566880086294e-10 6.4625201171544919e-11 0.0000000000000000e+00  -3.8629476123722978e-10 9.8618266265437811e-11 0.0000000000000000e+00  -3.5498893477692536e-10 1.3193684798126284e-10 0.0000000000000000e+00  -3.1434740225481877e-10 1.6382178319868264e-10 0.0000000000000000e+00  -2.6450303560196062e-10 1.9305158672362783e-10 0.0000000000000000e+00  -2.0606733103790895e-10 2.1746275984237971e-10 0.0000000000000000e+00  -1.4035499893206444e-10 2.3074381167302272e-10 0.0000000000000000e+00  -6.9726876497532137e-11 2.0315685271870998e-10 0.0000000000000000e+00  3.3854922443722729e-14 -1.7646245201365928e-13 0.0000000000000000e+00  2.6434141920311593e-14 9.4928481598474193e-14 0.0000000000000000e+00  -5.8667897194626173e-11 -1.3494261183605245e-10 0.0000000000000000e+00  -1.2212334586137416e-10 -1.6527933119609847e-10 0.0000000000000000e+00  -1.8279023830092414e-10 -1.6141761642152213e-10 0.0000000000000000e+00  -2.3777031552847996e-10 -1.4645644119481738e-10 0.0000000000000000e+00  -2.8549667596785645e-10 -1.2662648880812361e-10 0.0000000000000000e+00  -3.2504817933667925e-10 -1.0407903083791160e-10 0.0000000000000000e+00  -3.5595080668905852e-10 -7.9937112828668036e-11 0.0000000000000000e+00  -3.7803277243174202e-10 -5.4920038276597479e-11 0.0000000000000000e+00  -3.9129139839543684e-10 -2.9482271579280971e-11 0.0000000000000000e+00  -3.9578514004089457e-10 -3.8881885993922495e-12 0.0000000000000000e+00  -3.9156317885773879e-10 2.1706013885348045e-11 0.0000000000000000e+00  -3.7863794704596413e-10 4.7161390945348471e-11 0.0000000000000000e+00  -3.5700123693487955e-10 7.2265944230101701e-11 0.0000000000000000e+00  -3.2668209134698448e-10 9.6655885361533699e-11 0.0000000000000000e+00  -2.8784154692569396e-10 1.1975715965423987e-10 0.0000000000000000e+00  -2.4089395308971615e-10 1.4072589685445537e-10 0.0000000000000000e+00  -1.8664026048819482e-10 1.5814333799111986e-10 0.0000000000000000e+00  -1.2641390005575333e-10 1.6777381198509752e-10 0.0000000000000000e+00  -6.2403633150058650e-11 1.4846758538149668e-10 0.0000000000000000e+00  3.0030416127483438e-14 -1.3085941541358227e-13 0.0000000000000000e+00  2.5096500224657590e-14 5.6831884678596292e-14 0.0000000000000000e+00  -5.5033488239282103e-11 -8.5814626476659281e-11 0.0000000000000000e+00  -1.1419719898530953e-10 -1.0714247152057134e-10 0.0000000000000000e+00  -1.7091062464388368e-10 -1.0561468766934766e-10 0.0000000000000000e+00  -2.2264228709627977e-10 -9.6462751752114554e-11 0.0000000000000000e+00  -2.6792718415767035e-10 -8.3943455605790330e-11 0.0000000000000000e+00  -3.057994407775038