<?xml version="1.0"?>
<VTKFile type="UnstructuredGrid"  version="0.1"  >
<UnstructuredGrid>
<Piece  NumberOfPoints="651" NumberOfCells="1200">
<Points>
<DataArray  type="Float64"  NumberOfComponents="3"  format="ascii">0 0 0  50000 0 0  100000 0 0  150000 0 0  200000 0 0  250000 0 0  300000 0 0  350000 0 0  400000 0 0  450000 0 0  500000 0 0  550000 0 0  600000 0 0  650000 0 0  700000 0 0  750000 0 0  800000 0 0  850000 0 0  900000 0 0  950000 0 0  1000000 0 0  0 50000 0  50000 50000 0  100000 50000 0  150000 50000 0  200000 50000 0  250000 50000 0  300000 50000 0  350000 50000 0  400000 50000 0  450000 50000 0  500000 50000 0  550000 50000 0  600000 50000 0  650000 50000 0  700000 50000 0  750000 50000 0  800000 50000 0  850000 50000 0  900000 50000 0  950000 50000 0  1000000 50000 0  0 100000 0  50000 100000 0  100000 100000 0  150000 100000 0  200000 100000 0  250000 100000 0  300000 100000 0  350000 100000 0  400000 100000 0  450000 100000 0  500000 100000 0  550000 100000 0  600000 100000 0  650000 100000 0  700000 100000 0  750000 100000 0  800000 100000 0  850000 100000 0  900000 100000 0  950000 100000 0  1000000 100000 0  0 150000 0  50000 150000 0  100000 150000 0  150000 150000 0  200000 150000 0  250000 150000 0  300000 150000 0  350000 150000 0  400000 150000 0  450000 150000 0  500000 150000 0  550000 150000 0  600000 150000 0  650000 150000 0  700000 150000 0  750000 150000 0  800000 150000 0  850000 150000 0  900000 150000 0  950000 150000 0  1000000 150000 0  0 200000 0  50000 200000 0  100000 200000 0  150000 200000 0  200000 200000 0  250000 200000 0  300000 200000 0  350000 200000 0  400000 200000 0  450000 200000 0  500000 200000 0  550000 200000 0  600000 200000 0  650000 200000 0  700000 200000 0  750000 200000 0  800000 200000 0  850000 200000 0  900000 200000 0  950000 200000 0  1000000 200000 0  0 250000 0  50000 250000 0  100000 250000 0  150000 250000 0  200000 250000 0  250000 250000 0  300000 250000 0  350000 250000 0  400000 250000 0  450000 250000 0  500000 250000 0  550000 250000 0  600000 250000 0  650000 250000 0  700000 250000 0  750000 250000 0  800000 250000 0  850000 250000 0  900000 250000 0  950000 250000 0  1000000 250000 0  0 300000 0  50000 300000 0  100000 300000 0  150000 300000 0  200000 300000 0  250000 300000 0  300000 300000 0  350000 300000 0  400000 300000 0  450000 300000 0  500000 300000 0  550000 300000 0  600000 300000 0  650000 300000 0  700000 300000 0  750000 300000 0  800000 300000 0  850000 300000 0  900000 300000 0  950000 300000 0  1000000 300000 0  0 350000 0  50000 350000 0  100000 350000 0  150000 350000 0  200000 350000 0  250000 350000 0  300000 350000 0  350000 350000 0  400000 350000 0  450000 350000 0  500000 350000 0  550000 350000 0  600000 350000 0  650000 350000 0  700000 350000 0  750000 350000 0  800000 350000 0  850000 350000 0  900000 350000 0  950000 350000 0  1000000 350000 0  0 400000 0  50000 400000 0  100000 400000 0  150000 400000 0  200000 400000 0  250000 400000 0  300000 400000 0  350000 400000 0  400000 400000 0  450000 400000 0  500000 400000 0  550000 400000 0  600000 400000 0  650000 400000 0  700000 400000 0  750000 400000 0  800000 400000 0  850000 400000 0  900000 400000 0  950000 400000 0  1000000 400000 0  0 450000 0  50000 450000 0  100000 450000 0  150000 450000 0  200000 450000 0  250000 450000 0  300000 450000 0  350000 450000 0  400000 450000 0  450000 450000 0  500000 450000 0  550000 450000 0  600000 450000 0  650000 450000 0  700000 450000 0  750000 450000 0  800000 450000 0  850000 450000 0  900000 450000 0  950000 450000 0  1000000 450000 0  0 500000 0  50000 500000 0  100000 500000 0  150000 500000 0  200000 500000 0  250000 500000 0  300000 500000 0  350000 500000 0  400000 500000 0  450000 500000 0  500000 500000 0  550000 500000 0  600000 500000 0  650000 500000 0  700000 500000 0  750000 500000 0  800000 500000 0  850000 500000 0  900000 500000 0  950000 500000 0  1000000 500000 0  0 550000 0  50000 550000 0  100000 550000 0  150000 550000 0  200000 550000 0  250000 550000 0  300000 550000 0  350000 550000 0  400000 550000 0  450000 550000 0  500000 550000 0  550000 550000 0  600000 550000 0  650000 550000 0  700000 550000 0  750000 550000 0  800000 550000 0  850000 550000 0  900000 550000 0  950000 550000 0  1000000 550000 0  0 600000 0  50000 600000 0  100000 600000 0  150000 600000 0  200000 600000 0  250000 600000 0  300000 600000 0  350000 600000 0  400000 600000 0  450000 600000 0  500000 600000 0  550000 600000 0  600000 600000 0  650000 600000 0  700000 600000 0  750000 600000 0  800000 600000 0  850000 600000 0  900000 600000 0  950000 600000 0  1000000 600000 0  0 650000 0  50000 650000 0  100000 650000 0  150000 650000 0  200000 650000 0  250000 650000 0  300000 650000 0  350000 650000 0  400000 650000 0  450000 650000 0  500000 650000 0  550000 650000 0  600000 650000 0  650000 650000 0  700000 650000 0  750000 650000 0  800000 650000 0  850000 650000 0  900000 650000 0  950000 650000 0  1000000 650000 0  0 700000 0  50000 700000 0  100000 700000 0  150000 700000 0  200000 700000 0  250000 700000 0  300000 700000 0  350000 700000 0  400000 700000 0  450000 700000 0  500000 700000 0  550000 700000 0  600000 700000 0  650000 700000 0  700000 700000 0  750000 700000 0  800000 700000 0  850000 700000 0  900000 700000 0  950000 700000 0  1000000 700000 0  0 750000 0  50000 750000 0  100000 750000 0  150000 750000 0  200000 750000 0  250000 750000 0  300000 750000 0  350000 750000 0  400000 750000 0  450000 750000 0  500000 750000 0  550000 750000 0  600000 750000 0  650000 750000 0  700000 750000 0  750000 750000 0  800000 750000 0  850000 750000 0  900000 750000 0  950000 750000 0  1000000 750000 0  0 800000 0  50000 800000 0  100000 800000 0  150000 800000 0  200000 800000 0  250000 800000 0  300000 800000 0  350000 800000 0  400000 800000 0  450000 800000 0  500000 800000 0  550000 800000 0  600000 800000 0  650000 800000 0  700000 800000 0  750000 800000 0  800000 800000 0  850000 800000 0  900000 800000 0  950000 800000 0  1000000 800000 0  0 850000 0  50000 850000 0  100000 850000 0  150000 850000 0  200000 850000 0  250000 850000 0  300000 850000 0  350000 850000 0  400000 850000 0  450000 850000 0  500000 850000 0  550000 850000 0  600000 850000 0  650000 850000 0  700000 850000 0  750000 850000 0  800000 850000 0  850000 850000 0  900000 850000 0  950000 850000 0  1000000 850000 0  0 900000 0  50000 900000 0  100000 900000 0  150000 900000 0  200000 900000 0  250000 900000 0  300000 900000 0  350000 900000 0  400000 900000 0  450000 900000 0  500000 900000 0  550000 900000 0  600000 900000 0  650000 900000 0  700000 900000 0  750000 900000 0  800000 900000 0  850000 900000 0  900000 900000 0  950000 900000 0  1000000 900000 0  0 950000 0  50000 950000 0  100000 950000 0  150000 950000 0  200000 950000 0  250000 950000 0  300000 950000 0  350000 950000 0  400000 950000 0  450000 950000 0  500000 950000 0  550000 950000 0  600000 950000 0  650000 950000 0  700000 950000 0  750000 950000 0  800000 950000 0  850000 950000 0  900000 950000 0  950000 950000 0  1000000 950000 0  0 1000000 0  50000 1000000 0  100000 1000000 0  150000 1000000 0  200000 1000000 0  250000 1000000 0  300000 1000000 0  350000 1000000 0  400000 1000000 0  450000 1000000 0  500000 1000000 0  550000 1000000 0  600000 1000000 0  650000 1000000 0  700000 1000000 0  750000 1000000 0  800000 1000000 0  850000 1000000 0  900000 1000000 0  950000 1000000 0  1000000 1000000 0  0 1050000 0  50000 1050000 0  100000 1050000 0  150000 1050000 0  200000 1050000 0  250000 1050000 0  300000 1050000 0  350000 1050000 0  400000 1050000 0  450000 1050000 0  500000 1050000 0  550000 1050000 0  600000 1050000 0  650000 1050000 0  700000 1050000 0  750000 1050000 0  800000 1050000 0  850000 1050000 0  900000 1050000 0  950000 1050000 0  1000000 1050000 0  0 1100000 0  50000 1100000 0  100000 1100000 0  150000 1100000 0  200000 1100000 0  250000 1100000 0  300000 1100000 0  350000 1100000 0  400000 1100000 0  450000 1100000 0  500000 1100000 0  550000 1100000 0  600000 1100000 0  650000 1100000 0  700000 1100000 0  750000 1100000 0  800000 1100000 0  850000 1100000 0  900000 1100000 0  950000 1100000 0  1000000 1100000 0  0 1150000 0  50000 1150000 0  100000 1150000 0  150000 1150000 0  200000 1150000 0  250000 1150000 0  300000 1150000 0  350000 1150000 0  400000 1150000 0  450000 1150000 0  500000 1150000 0  550000 1150000 0  600000 1150000 0  650000 1150000 0  700000 1150000 0  750000 1150000 0  800000 1150000 0  850000 1150000 0  900000 1150000 0  950000 1150000 0  1000000 1150000 0  0 1200000 0  50000 1200000 0  100000 1200000 0  150000 1200000 0  200000 1200000 0  250000 1200000 0  300000 1200000 0  350000 1200000 0  400000 1200000 0  450000 1200000 0  500000 1200000 0  550000 1200000 0  600000 1200000 0  650000 1200000 0  700000 1200000 0  750000 1200000 0  800000 1200000 0  850000 1200000 0  900000 1200000 0  950000 1200000 0  1000000 1200000 0  0 1250000 0  50000 1250000 0  100000 1250000 0  150000 1250000 0  200000 1250000 0  250000 1250000 0  300000 1250000 0  350000 1250000 0  400000 1250000 0  450000 1250000 0  500000 1250000 0  550000 1250000 0  600000 1250000 0  650000 1250000 0  700000 1250000 0  750000 1250000 0  800000 1250000 0  850000 1250000 0  900000 1250000 0  950000 1250000 0  1000000 1250000 0  0 1300000 0  50000 1300000 0  100000 1300000 0  150000 1300000 0  200000 1300000 0  250000 1300000 0  300000 1300000 0  350000 1300000 0  400000 1300000 0  450000 1300000 0  500000 1300000 0  550000 1300000 0  600000 1300000 0  650000 1300000 0  700000 1300000 0  750000 1300000 0  800000 1300000 0  850000 1300000 0  900000 1300000 0  950000 1300000 0  1000000 1300000 0  0 1350000 0  50000 1350000 0  100000 1350000 0  150000 1350000 0  200000 1350000 0  250000 1350000 0  300000 1350000 0  350000 1350000 0  400000 1350000 0  450000 1350000 0  500000 1350000 0  550000 1350000 0  600000 1350000 0  650000 1350000 0  700000 135
[...]
<PointData  Vectors="f_5995"> 
<DataArray  type="Float64"  Name="f_5995"  NumberOfComponents="3" format="ascii">1.8440719521502024e-12 3.3118776421584696e-12 0.0000000000000000e+00  8.0002167101508575e-08 2.3406049093719300e-12 0.0000000000000000e+00  8.0001646505359024e-08 9.1732055689574684e-13 0.0000000000000000e+00  8.0001094281305280e-08 2.4423788073441466e-13 0.0000000000000000e+00  8.0000897618538332e-08 9.0091630650100216e-14 0.0000000000000000e+00  8.0000780290340262e-08 6.0224549153027987e-14 0.0000000000000000e+00  8.0000698750794817e-08 4.3406944677510742e-14 0.0000000000000000e+00  8.0000645177511794e-08 2.9026276832977388e-14 0.0000000000000000e+00  8.0000612697827668e-08 1.7370858822278488e-14 0.0000000000000000e+00  8.0000596654947560e-08 7.4963938477986493e-15 0.0000000000000000e+00  8.0000594828885160e-08 -1.8424197011939541e-15 0.0000000000000000e+00  8.0000606914384193e-08 -1.1827184953166255e-14 0.0000000000000000e+00  8.0000634369750685e-08 -2.3846770529992878e-14 0.0000000000000000e+00  8.0000680909026488e-08 -3.9879942700623803e-14 0.0000000000000000e+00  8.0000754545285067e-08 -6.1259878632718541e-14 0.0000000000000000e+00  8.0000870748149389e-08 -7.9190161269127248e-14 0.0000000000000000e+00  8.0001043046993136e-08 -7.1082727542907031e-14 0.0000000000000000e+00  8.0001320537467458e-08 -2.1733012996235281e-13 0.0000000000000000e+00  8.0002314542903284e-08 -1.5537691533339307e-12 0.0000000000000000e+00  8.0001716114972579e-08 -1.9095913655171648e-12 0.0000000000000000e+00  1.0367660249936947e-12 -1.8346137199287658e-12 0.0000000000000000e+00  1.3155830603289016e-12 2.6206113578421598e-12 0.0000000000000000e+00  1.1936239406001290e-08 -1.1448481435705944e-09 0.0000000000000000e+00  1.3810754748846360e-08 -9.0101420779346502e-10 0.0000000000000000e+00  1.5457454297865244e-08 -3.9782634397478233e-10 0.0000000000000000e+00  1.6030287784996202e-08 -2.3547061469241161e-10 0.0000000000000000e+00  1.6241651737988767e-08 -1.4395357093274262e-10 0.0000000000000000e+00  1.6358803781940452e-08 -8.4517275323609993e-11 0.0000000000000000e+00  1.6434490837311697e-08 -4.5014200311072691e-11 0.0000000000000000e+00  1.6481909057660245e-08 -1.6563269721335805e-11 0.0000000000000000e+00  1.6507636277397918e-08 6.3125806038647442e-12 0.0000000000000000e+00  1.6515169721275177e-08 2.7089470474712315e-11 0.0000000000000000e+00  1.6505642351950141e-08 4.8501904026001215e-11 0.0000000000000000e+00  1.6478131548584120e-08 7.3414631438690998e-11 0.0000000000000000e+00  1.6429511406824934e-08 1.0571630900937382e-10 0.0000000000000000e+00  1.6354002722838157e-08 1.5154682621474555e-10 0.0000000000000000e+00  1.6243876367115005e-08 2.2043333548862314e-10 0.0000000000000000e+00  1.6092411850406360e-08 3.2763614343160224e-10 0.0000000000000000e+00  1.5846737693088046e-08 5.4880944892321942e-10 0.0000000000000000e+00  1.4974814855675830e-08 1.4084740604943799e-09 0.0000000000000000e+00  1.1466550362349960e-08 4.0120526551768355e-09 0.0000000000000000e+00  1.4812674924566920e-12 -2.1340705711228255e-12 0.0000000000000000e+00  4.4339698779191038e-13 1.3273433427906775e-12 0.0000000000000000e+00  3.1825337079369875e-10 -2.6225530844434549e-09 0.0000000000000000e+00  1.8851364052191466e-09 -1.2891235414191376e-09 0.0000000000000000e+00  1.6054522647808250e-09 -8.0985456130302277e-10 0.0000000000000000e+00  1.8367448689639445e-09 -5.1460231856787455e-10 0.0000000000000000e+00  2.0476618426193818e-09 -3.2779195883156443e-10 0.0000000000000000e+00  2.1764323193065134e-09 -2.1048232140830304e-10 0.0000000000000000e+00  2.2575953779432185e-09 -1.3191955005190288e-10 0.0000000000000000e+00  2.3091998789675865e-09 -7.4690862525280054e-11 0.0000000000000000e+00  2.3385167210670574e-09 -2.8703115132969235e-11 0.0000000000000000e+00  2.3489433840979794e-09 1.2579611708047762e-11 0.0000000000000000e+00  2.3418254974105837e-09 5.4258618025671065e-11 0.0000000000000000e+00  2.3169066380629133e-09 1.0142832010196328e-10 0.0000000000000000e+00  2.2725041589273933e-09 1.6053561140398798e-10 0.0000000000000000e+00  2.2057918440624205e-09 2.4127126848068310e-10 0.0000000000000000e+00  2.1135660361701814e-09 3.6033070700322416e-10 0.0000000000000000e+00  1.9910965183119027e-09 5.5289791033227165e-10 0.0000000000000000e+00  1.8156184920326579e-09 9.0705273856034145e-10 0.0000000000000000e+00  1.5392631045495973e-09 1.5603012593458882e-09 0.0000000000000000e+00  1.3733593400033692e-09 2.0558344617530318e-09 0.0000000000000000e+00  1.2200788096563529e-12 -2.3224213686184834e-12 0.0000000000000000e+00  1.6357257561725809e-13 9.0842992780693285e-13 0.0000000000000000e+00  -3.6898035351191633e-10 -1.5052372495043677e-09 0.0000000000000000e+00  -4.3807212205306037e-10 -1.4127922320683251e-09 0.0000000000000000e+00  -5.3492877642056478e-10 -9.8652515639982196e-10 0.0000000000000000e+00  -5.4799304521486648e-10 -6.5505050467543398e-10 0.0000000000000000e+00  -4.9439742936199083e-10 -4.4180727711217716e-10 0.0000000000000000e+00  -4.2666140729733415e-10 -2.9655047141566011e-10 0.0000000000000000e+00  -3.7206725975257594e-10 -1.9352911008007751e-10 0.0000000000000000e+00  -3.3414034142181440e-10 -1.1577124979733061e-10 0.0000000000000000e+00  -3.1133456472844096e-10 -5.2077260275364352e-11 0.0000000000000000e+00  -3.0224084693458993e-10 5.3362852254679239e-12 0.0000000000000000e+00  -3.0606597375999279e-10 6.2715452791109233e-11 0.0000000000000000e+00  -3.2248256899742306e-10 1.2616176015785883e-10 0.0000000000000000e+00  -3.5130466299861874e-10 2.0292978570208556e-10 0.0000000000000000e+00  -3.9177349110553079e-10 3.0307626666908495e-10 0.0000000000000000e+00  -4.4110239583711068e-10 4.4207149936956312e-10 0.0000000000000000e+00  -4.9139976414607671e-10 6.4423348500218983e-10 0.0000000000000000e+00  -5.1831289851613428e-10 9.3621879108107676e-10 0.0000000000000000e+00  -4.3573039175776587e-10 1.2723235311614704e-09 0.0000000000000000e+00  -7.3970701163899442e-11 1.2843878904646696e-09 0.0000000000000000e+00  1.2276491803795149e-13 -1.2284522335706921e-12 0.0000000000000000e+00  1.0015871517199544e-13 7.0695095127210924e-13 0.0000000000000000e+00  -2.9216538314941949e-10 -1.0147275739654536e-09 0.0000000000000000e+00  -5.6262225766629974e-10 -1.1502822987351798e-09 0.0000000000000000e+00  -7.0377065714238751e-10 -9.1375114298064337e-10 0.0000000000000000e+00  -7.9069182156409124e-10 -6.7658024555089930e-10 0.0000000000000000e+00  -8.0526299314276526e-10 -4.8322831048028093e-10 0.0000000000000000e+00  -7.9238057056889436e-10 -3.3802443327561752e-10 0.0000000000000000e+00  -7.7165924295429471e-10 -2.2762122500972014e-10 0.0000000000000000e+00  -7.5276842496450505e-10 -1.3995194458221203e-10 0.0000000000000000e+00  -7.3970574178309552e-10 -6.5872728812831303e-11 0.0000000000000000e+00  -7.3366864951787012e-10 1.7588797196099121e-12 0.0000000000000000e+00  -7.3471976861635817e-10 6.9023960224305309e-11 0.0000000000000000e+00  -7.4226197139036774e-10 1.4181748911413541e-10 0.0000000000000000e+00  -7.5482764113978861e-10 2.2666738311657156e-10 0.0000000000000000e+00  -7.6926609036004817e-10 3.3150408775713726e-10 0.0000000000000000e+00  -7.7898608948614844e-10 4.6602828282200522e-10 0.0000000000000000e+00  -7.7017882117085931e-10 6.3964389393534220e-10 0.0000000000000000e+00  -7.1391330036282653e-10 8.4963208022696621e-10 0.0000000000000000e+00  -5.5869934683196737e-10 1.0423927369385371e-09 0.0000000000000000e+00  -2.7027847419629984e-10 1.0059236064430460e-09 0.0000000000000000e+00  5.4660747477119801e-14 -9.0612339564427422e-13 0.0000000000000000e+00  7.9417361206016698e-14 5.6240603616683614e-13 0.0000000000000000e+00  -2.1183946352167711e-10 -7.8131194548352599e-10 0.0000000000000000e+00  -4.3092121240417192e-10 -9.0392092099406025e-10 0.0000000000000000e+00  -5.8897717199869664e-10 -7.8880501820834037e-10 0.0000000000000000e+00  -6.8774888852399313e-10 -6.2409981011555799e-10 0.0000000000000000e+00  -7.3874100826204052e-10 -4.7168504742444001e-10 0.0000000000000000e+00  -7.5843202517134898e-10 -3.4382920610567533e-10 0.0000000000000000e+00  -7.6237921582418232e-10 -2.3839865971643985e-10 0.0000000000000000e+00  -7.6002696321921615e-10 -1.4992366710484619e-10 0.0000000000000000e+00  -7.5633467684732753e-10 -7.2453939100364575e-11 0.0000000000000000e+00  -7.5363457684374053e-10 -5.2557254767277411e-13 0.0000000000000000e+00  -7.5258596976156945e-10 7.0885691635805270e-11 0.0000000000000000e+00  -7.5257157318084961e-10 1.4665556440846138e-10 0.0000000000000000e+00  -7.5159737348203451e-10 2.3177950659433942e-10 0.0000000000000000e+00  -7.4569027933130755e-10 3.3139515113658170e-10 0.0000000000000000e+00  -7.2770579297319786e-10 4.5005572090721954e-10 0.0000000000000000e+00  -6.8551502666081509e-10 5.8903011216925929e-10 0.0000000000000000e+00  -6.0066430120208719e-10 7.3906153943806608e-10 0.0000000000000000e+00  -4.5289405169098167e-10 8.6109423238571947e-10 0.0000000000000000e+00  -2.3943711854826643e-10 8.0839142737214594e-10 0.0000000000000000e+00  9.5800688629417988e-14 -6.9948959332339730e-13 0.0000000000000000e+00  6.3675576796117013e-14 4.4966320731508012e-13 0.0000000000000000e+00  -1.5835042774165391e-10 -6.2160930360811941e-10 0.0000000000000000e+00  -3.2713342496079939e-10 -7.2486941275959339e-10 0.0000000000000000e+00  -4.6626693984737825e-10 -6.6072605953025331e-10 0.0000000000000000e+00  -5.6504494806850791e-10 -5.4831653200073926e-10 0.0000000000000000e+00  -6.2887035747119531e-10 -4.3228383254584317e-10 0.0000000000000000e+00  -6.6587202181996868e-10 -3.2583474599398049e-10 0.0000000000000000e+00  -6.8558313821334876e-10 -2.3185676940229534e-10 0.0000000000000000e+00  -6.9497885379152757e-10 -1.4873310552110354e-10 0.0000000000000000e+00  -6.9852938830307375e-10 -7.3338668825225386e-11 0.0000000000000000e+00  -6.9863883270015175e-10 -2.0919355667665151e-12 0.0000000000000000e+00  -6.9612472636050948e-10 6.8640207143285665e-11 0.0000000000000000e+00  -6.9045155538126949e-10 1.4240917163755075e-10 0.0000000000000000e+00  -6.7968353292643574e-10 2.2257061532404789e-10 0.0000000000000000e+00  -6.6018267797732765e-10 3.1195016363713728e-10 0.0000000000000000e+00  -6.2614579107263810e-10 4.1197532238517876e-10 0.0000000000000000e+00  -5.6934130202575552e-10 5.2080618979108630e-10 0.0000000000000000e+00  -4.8010325380943724e-10 6.2940281623708422e-10 0.0000000000000000e+00  -3.5136351125598358e-10 7.0910978904870460e-10 0.0000000000000000e+00  -1.8531953893436163e-10 6.4928992998194351e-10 0.0000000000000000e+00  8.7899818233302777e-14 -5.4725153192625053e-13 0.0000000000000000e+00  5.1340727256916681e-14 3.6101765417703103e-13 0.0000000000000000e+00  -1.2372305139105811e-10 -4.9847195101923452e-10 0.0000000000000000e+00  -2.5756855083203743e-10 -5.8691052223711341e-10 0.0000000000000000e+00  -3.7472434671390592e-10 -5.4714851282077419e-10 0.0000000000000000e+00  -4.6628814218969787e-10 -4.6868271281098870e-10 0.0000000000000000e+00  -5.3240209315039341e-10 -3.8077743571375988e-10 0.0000000000000000e+00  -5.7709224158245707e-10 -2.9464024588226519e-10 0.0000000000000000e+00  -6.0550828379638595e-10 -2.1412762940029085e-10 0.0000000000000000e+00  -6.2228225940184066e-10 -1.3967170143200445e-10 0.0000000000000000e+00  -6.3074649668029873e-10 -7.0010963514669702e-11 0.0000000000000000e+00  -6.3288142943154406e-10 -3.1008136598726390e-12 0.0000000000000000e+00  -6.2942893002159382e-10 6.3384260041588142e-11 0.0000000000000000e+00  -6.1997678230103096e-10 1.3174410485662826e-10 0.0000000000000000e+00  -6.0295661277963379e-10 2.0396803056725460e-10 0.0000000000000000e+00  -5.7557762105637079e-10 2.8132399722515724e-10 0.0000000000000000e+00  -5.3382274941427565e-10 3.6368209489933972e-10 0.0000000000000000e+00  -4.7279960510838967e-10 4.4840948347490760e-10 0.0000000000000000e+00  -3.8792033748161296e-10 5.2808331562356130e-10 0.0000000000000000e+00  -2.7719715135458229e-10 5.8133908165616336e-10 0.0000000000000000e+00  -1.4377194129948393e-10 5.2305124495238266e-10 0.0000000000000000e+00  6.9480229106935776e-14 -4.3607730636174759e-13 0.0000000000000000e+00  4.2446617383484302e-14 2.8948244584347502e-13 0.0000000000000000e+00  -1.0048179924040695e-10 -3.9998768754080106e-10 0.0000000000000000e+00  -2.0993983888547172e-10 -4.7478213992756897e-10 0.0000000000000000e+00  -3.0917641156366324e-10 -4.4913451647034878e-10 0.0000000000000000e+00  -3.9142390809831991e-10 -3.9265477701011016e-10 0.0000000000000000e+00  -4.5523886142540881e-10 -3.2593640397694397e-10 0.0000000000000000e+00  -5.0205758933429770e-10 -2.5721577090854054e-10 0.0000000000000000e+00  -5.3449969558656995e-10 -1.9006475139098932e-10 0.0000000000000000e+00  -5.5531807003041542e-10 -1.2568331047495228e-10 0.0000000000000000e+00  -5.6672855582427756e-10 -6.3874030452542353e-11 0.0000000000000000e+00  -5.7015664545346720e-10 -3.6737890305850654e-12 0.0000000000000000e+00  -5.6617163257567286e-10 5.6218062255615760e-11 0.0000000000000000e+00  -5.5448990216792487e-10 1.1710914360381757e-10 0.0000000000000000e+00  -5.3399614324646944e-10 1.8000391941038123e-10 0.0000000000000000e+00  -5.0280149714383212e-10 2.4524425669659702e-10 0.0000000000000000e+00  -4.5842449170475601e-10 3.1205315990706263e-10 0.0000000000000000e+00  -3.9824284329528542e-10 3.7790767204204599e-10 0.0000000000000000e+00  -3.2036144858747781e-10 4.3709020960521440e-10 0.0000000000000000e+00  -2.2484612743384126e-10 4.7364675755813714e-10 0.0000000000000000e+00  -1.1489613521170363e-10 4.2146303960102071e-10 0.0000000000000000e+00  5.5185539663181351e-14 -3.4999025043565211e-13 0.0000000000000000e+00  3.6101660249143829e-14 2.2995374999058207e-13 0.0000000000000000e+00  -8.4284421092896226e-11 -3.1879444469298229e-10 0.0000000000000000e+00  -1.7632941329472716e-10 -3.8088105691029859e-10 0.0000000000000000e+00  -2.6169225162493882e-10 -3.6406857214259595e-10 0.0000000000000000e+00  -3.3512912548265435e-10 -3.2268876070423035e-10 0.0000000000000000e+00  -3.9484938701315830e-10 -2.7196599049607646e-10 0.0000000000000000e+00  -4.4096144918655146e-10 -2.1777710625579143e-10 0.0000000000000000e+00  -4.7459279079544969e-10 -1.6301294949119448e-10 0.0000000000000000e+00  -4.9720679493150022e-10 -1.0900261599013284e-10 0.0000000000000000e+00  -5.1012978815884027e-10 -5.6073747794992738e-11 0.0000000000000000e+00  -5.1427957172885613e-10 -3.9351188163716875e-12 0.0000000000000000e+00  -5.1004506771586892e-10 4.8005223175730559e-11 0.0000000000000000e+00  -4.9725391442609876e-10 1.0036059119848012e-10 0.0000000000000000e+00  -4.7520110037511567e-10 1.5349976608066073e-10 0.0000000000000000e+00  -4.4274796682917843e-10 2.0727385821784651e-10 0.0000000000000000e+00  -3.9853294256754250e-10 2.6072781328824989e-10 0.0000000000000000e+00  -3.4134856341872900e-10 3.1174588036222542e-10 0.0000000000000000e+00  -2.7070638686841609e-10 3.5607378214209972e-10 0.0000000000000000e+00  -1.8751325536658309e-10 3.8182730739365540e-10 0.0000000000000000e+00  -9.4718233365851469e-11 3.3755494669873729e-10 0.0000000000000000e+00  4.5214335325833544e-14 -2.8021904908928066e-13 0.0000000000000000e+00  3.1540587544550423e-14 1.7899702149102211e-13 0.0000000000000000e+00  -7.2757205245719079e-11 -2.4989014471533285e-10 0.0000000000000000e+00  -1.5218072837423651e-10 -3.0035798202770799e-10 0.0000000000000000e+00  -2.2693820269783503e-10 -2.8933970331924089e-10 0.0000000000000000e+00  -2.9285805047763891e-10 -2.5895977671355611e-10 0.0000000000000000e+00  -3.4815366197700773e-10 -2.2064105200824793e-10 0.0000000000000000e+00  -3.9230998774857647e-10 -1.7860507172217660e-10 0.0000000000000000e+00  -4.2559256726797888e-10 -1.3504132431636489e-10 0.0000000000000000e+00  -4.4863942240725468e-10 -9.1144387021567016e-11 0.0000000000000000e+00  -4.6213985498260170e-10 -4.7437540705536215e-11 0.0000000000000000e+00  -4.6661680282913099e-10 -3.9966529003484975e-12 0.0000000000000000e+00  -4.6230827066440535e-10 3.9335046362232206e-11 0.0000000000000000e+00  -4.4912729470100830e-10 8.2738593705188674e-11 0.0000000000000000e+00  -4.2668868914598705e-10 1.2621800125340451e-10 0.0000000000000000e+00  -3.9440525542861981e-10 1.6940881838896156e-10 0.0000000000000000e+00  -3.5166696874307123e-10 2.1140226331615361e-10 0.0000000000000000e+00  -2.9811360952849404e-10 2.5054379498023839e-10 0.0000000000000000e+00  -2.3398730930158452e-10 2.8375087338534091e-10 0.0000000000000000e+00  -1.6051698409367326e-10 3.0226339049357919e-10 0.0000000000000000e+00  -8.0347417354376841e-11 2.6642311161379954e-10 0.0000000000000000e+00  3.8131051327241267e-14 -2.2190049579970350e-13 0.0000000000000000e+00  2.8290642103221613e-14 1.3420176779953306e-13 0.0000000000000000e+00  -6.4549956754541631e-11 -1.8980603700538921e-10 0.0000000000000000e+00  -1.3482244541317890e-10 -2.2970096184176435e-10 0.0000000000000000e+00  -2.0159699028115927e-10 -2.2269855874778665e-10 0.0000000000000000e+00  -2.6145479328783821e-10 -2.0076910210809132e-10 0.0000000000000000e+00  -3.1271274106870976e-10 -1.7244080470344975e-10 0.0000000000000000e+00  -3.5457105042265323e-10 -1.4074721663087964e-10 0.0000000000000000e+00  -3.8681460607616003e-10 -1.0728643034273592e-10 0.0000000000000000e+00  -4.0957276512952033e-10 -7.3025240661386926e-11 0.0000000000000000e+00  -4.2311033502554023e-10 -3.8500416690508750e-11 0.0000000000000000e+00  -4.2767050953240626e-10 -3.9479662251782078e-12 0.0000000000000000e+00  -4.2337917254509471e-10 3.0560654823821353e-11 0.0000000000000000e+00  -4.1020943296967225e-10 6.4975490066271125e-11 0.0000000000000000e+00  -3.8800308165131464e-10 9.9127943347998379e-11 0.0000000000000000e+00  -3.5654841101194068e-10 1.3260417398882014e-10 0.0000000000000000e+00  -3.1571449565806928e-10 1.6464120664379374e-10 0.0000000000000000e+00  -2.6563593763241737e-10 1.9401389366736604e-10 0.0000000000000000e+00  -2.0693000938284310e-10 2.1856427477126441e-10 0.0000000000000000e+00  -1.4092715084962349e-10 2.3201726766214476e-10 0.0000000000000000e+00  -7.0016268071762582e-11 2.0459882349571546e-10 0.0000000000000000e+00  3.3016088409538601e-14 -1.7182096771609055e-13 0.0000000000000000e+00  2.6069488716651503e-14 9.3764364810893178e-14 0.0000000000000000e+00  -5.8864392784700694e-11 -1.3600493638147704e-10 0.0000000000000000e+00  -1.2264790338634491e-10 -1.6622250152271036e-10 0.0000000000000000e+00  -1.8360044181974039e-10 -1.6219725710631505e-10 0.0000000000000000e+00  -2.3882949735545089e-10 -1.4711176833953459e-10 0.0000000000000000e+00  -2.8676914860847916e-10 -1.2716970926323006e-10 0.0000000000000000e+00  -3.2649668413201966e-10 -1.0451014853573833e-10 0.0000000000000000e+00  -3.5753673083629950e-10 -8.0253929195258408e-11 0.0000000000000000e+00  -3.7971679141632561e-10 -5.5120874232171555e-11 0.0000000000000000e+00  -3.9303390226166621e-10 -2.9566174358394169e-11 0.0000000000000000e+00  -3.9754636269982752e-10 -3.8545888111220332e-12 0.0000000000000000e+00  -3.9330314231766868e-10 2.1857489822504438e-11 0.0000000000000000e+00  -3.8031637995210447e-10 4.7430731461230242e-11 0.0000000000000000e+00  -3.5857764893574378e-10 7.2652125632932143e-11 0.0000000000000000e+00  -3.2811617486950944e-10 9.7155863890199096e-11 0.0000000000000000e+00  -2.8909405662730518e-10 1.2036481414907623e-10 0.0000000000000000e+00  -2.4192827024764646e-10 1.4143230800560618e-10 0.0000000000000000e+00  -1.8742541820840107e-10 1.5894357730219290e-10 0.0000000000000000e+00  -1.2693172108362054e-10 1.6869044882930907e-10 0.0000000000000000e+00  -6.2657305735336586e-11 1.4950482517393361e-10 0.0000000000000000e+00  2.9336551145328570e-14 -1.2766557529824531e-13 0.0000000000000000e+00  2.4708285569025256e-14 5.6248211257088318e-14 0.0000000000000000e+00  -5.5223810019869279e-11 -8.6508612726067005e-11 0.0000000000000000e+00  -1.1468328705186118e-10 -1.0776073230438303e-10 0.0000000000000000e+00  -1.7166104813836210e-10 -1.0612184825864998e-10 0.0000000000000000e+00  -2.2362728698234610e-10 -9.6886081472832136e-11 0.0000000000000000e+00  -2.6911565440895125e-10 -8.4292402989829955e-11 0.0000000000000000e+00  -3.0715757924317997e