<?xml version="1.0"?>
<VTKFile type="UnstructuredGrid"  version="0.1"  >
<UnstructuredGrid>
<Piece  NumberOfPoints="651" NumberOfCells="1200">
<Points>
<DataArray  type="Float64"  NumberOfComponents="3"  format="ascii">0 0 0  50000 0 0  100000 0 0  150000 0 0  200000 0 0  250000 0 0  300000 0 0  350000 0 0  400000 0 0  450000 0 0  500000 0 0  550000 0 0  600000 0 0  650000 0 0  700000 0 0  750000 0 0  800000 0 0  850000 0 0  900000 0 0  950000 0 0  1000000 0 0  0 50000 0  50000 50000 0  100000 50000 0  150000 50000 0  200000 50000 0  250000 50000 0  300000 50000 0  350000 50000 0  400000 50000 0  450000 50000 0  500000 50000 0  550000 50000 0  600000 50000 0  650000 50000 0  700000 50000 0  750000 50000 0  800000 50000 0  850000 50000 0  900000 50000 0  950000 50000 0  1000000 50000 0  0 100000 0  50000 100000 0  100000 100000 0  150000 100000 0  200000 100000 0  250000 100000 0  300000 100000 0  350000 100000 0  400000 100000 0  450000 100000 0  500000 100000 0  550000 100000 0  600000 100000 0  650000 100000 0  700000 100000 0  750000 100000 0  800000 100000 0  850000 100000 0  900000 100000 0  950000 100000 0  1000000 100000 0  0 150000 0  50000 150000 0  100000 150000 0  150000 150000 0  200000 150000 0  250000 150000 0  300000 150000 0  350000 150000 0  400000 150000 0  450000 150000 0  500000 150000 0  550000 150000 0  600000 150000 0  650000 150000 0  700000 150000 0  750000 150000 0  800000 150000 0  850000 150000 0  900000 150000 0  950000 150000 0  1000000 150000 0  0 200000 0  50000 200000 0  100000 200000 0  150000 200000 0  200000 200000 0  250000 200000 0  300000 200000 0  350000 200000 0  400000 200000 0  450000 200000 0  500000 200000 0  550000 200000 0  600000 200000 0  650000 200000 0  700000 200000 0  750000 200000 0  800000 200000 0  850000 200000 0  900000 200000 0  950000 200000 0  1000000 200000 0  0 250000 0  50000 250000 0  100000 250000 0  150000 250000 0  200000 250000 0  250000 250000 0  300000 250000 0  350000 250000 0  400000 250000 0  450000 250000 0  500000 250000 0  550000 250000 0  600000 250000 0  650000 250000 0  700000 250000 0  750000 250000 0  800000 250000 0  850000 250000 0  900000 250000 0  950000 250000 0  1000000 250000 0  0 300000 0  50000 300000 0  100000 300000 0  150000 300000 0  200000 300000 0  250000 300000 0  300000 300000 0  350000 300000 0  400000 300000 0  450000 300000 0  500000 300000 0  550000 300000 0  600000 300000 0  650000 300000 0  700000 300000 0  750000 300000 0  800000 300000 0  850000 300000 0  900000 300000 0  950000 300000 0  1000000 300000 0  0 350000 0  50000 350000 0  100000 350000 0  150000 350000 0  200000 350000 0  250000 350000 0  300000 350000 0  350000 350000 0  400000 350000 0  450000 350000 0  500000 350000 0  550000 350000 0  600000 350000 0  650000 350000 0  700000 350000 0  750000 350000 0  800000 350000 0  850000 350000 0  900000 350000 0  950000 350000 0  1000000 350000 0  0 400000 0  50000 400000 0  100000 400000 0  150000 400000 0  200000 400000 0  250000 400000 0  300000 400000 0  350000 400000 0  400000 400000 0  450000 400000 0  500000 400000 0  550000 400000 0  600000 400000 0  650000 400000 0  700000 400000 0  750000 400000 0  800000 400000 0  850000 400000 0  900000 400000 0  950000 400000 0  1000000 400000 0  0 450000 0  50000 450000 0  100000 450000 0  150000 450000 0  200000 450000 0  250000 450000 0  300000 450000 0  350000 450000 0  400000 450000 0  450000 450000 0  500000 450000 0  550000 450000 0  600000 450000 0  650000 450000 0  700000 450000 0  750000 450000 0  800000 450000 0  850000 450000 0  900000 450000 0  950000 450000 0  1000000 450000 0  0 500000 0  50000 500000 0  100000 500000 0  150000 500000 0  200000 500000 0  250000 500000 0  300000 500000 0  350000 500000 0  400000 500000 0  450000 500000 0  500000 500000 0  550000 500000 0  600000 500000 0  650000 500000 0  700000 500000 0  750000 500000 0  800000 500000 0  850000 500000 0  900000 500000 0  950000 500000 0  1000000 500000 0  0 550000 0  50000 550000 0  100000 550000 0  150000 550000 0  200000 550000 0  250000 550000 0  300000 550000 0  350000 550000 0  400000 550000 0  450000 550000 0  500000 550000 0  550000 550000 0  600000 550000 0  650000 550000 0  700000 550000 0  750000 550000 0  800000 550000 0  850000 550000 0  900000 550000 0  950000 550000 0  1000000 550000 0  0 600000 0  50000 600000 0  100000 600000 0  150000 600000 0  200000 600000 0  250000 600000 0  300000 600000 0  350000 600000 0  400000 600000 0  450000 600000 0  500000 600000 0  550000 600000 0  600000 600000 0  650000 600000 0  700000 600000 0  750000 600000 0  800000 600000 0  850000 600000 0  900000 600000 0  950000 600000 0  1000000 600000 0  0 650000 0  50000 650000 0  100000 650000 0  150000 650000 0  200000 650000 0  250000 650000 0  300000 650000 0  350000 650000 0  400000 650000 0  450000 650000 0  500000 650000 0  550000 650000 0  600000 650000 0  650000 650000 0  700000 650000 0  750000 650000 0  800000 650000 0  850000 650000 0  900000 650000 0  950000 650000 0  1000000 650000 0  0 700000 0  50000 700000 0  100000 700000 0  150000 700000 0  200000 700000 0  250000 700000 0  300000 700000 0  350000 700000 0  400000 700000 0  450000 700000 0  500000 700000 0  550000 700000 0  600000 700000 0  650000 700000 0  700000 700000 0  750000 700000 0  800000 700000 0  850000 700000 0  900000 700000 0  950000 700000 0  1000000 700000 0  0 750000 0  50000 750000 0  100000 750000 0  150000 750000 0  200000 750000 0  250000 750000 0  300000 750000 0  350000 750000 0  400000 750000 0  450000 750000 0  500000 750000 0  550000 750000 0  600000 750000 0  650000 750000 0  700000 750000 0  750000 750000 0  800000 750000 0  850000 750000 0  900000 750000 0  950000 750000 0  1000000 750000 0  0 800000 0  50000 800000 0  100000 800000 0  150000 800000 0  200000 800000 0  250000 800000 0  300000 800000 0  350000 800000 0  400000 800000 0  450000 800000 0  500000 800000 0  550000 800000 0  600000 800000 0  650000 800000 0  700000 800000 0  750000 800000 0  800000 800000 0  850000 800000 0  900000 800000 0  950000 800000 0  1000000 800000 0  0 850000 0  50000 850000 0  100000 850000 0  150000 850000 0  200000 850000 0  250000 850000 0  300000 850000 0  350000 850000 0  400000 850000 0  450000 850000 0  500000 850000 0  550000 850000 0  600000 850000 0  650000 850000 0  700000 850000 0  750000 850000 0  800000 850000 0  850000 850000 0  900000 850000 0  950000 850000 0  1000000 850000 0  0 900000 0  50000 900000 0  100000 900000 0  150000 900000 0  200000 900000 0  250000 900000 0  300000 900000 0  350000 900000 0  400000 900000 0  450000 900000 0  500000 900000 0  550000 900000 0  600000 900000 0  650000 900000 0  700000 900000 0  750000 900000 0  800000 900000 0  850000 900000 0  900000 900000 0  950000 900000 0  1000000 900000 0  0 950000 0  50000 950000 0  100000 950000 0  150000 950000 0  200000 950000 0  250000 950000 0  300000 950000 0  350000 950000 0  400000 950000 0  450000 950000 0  500000 950000 0  550000 950000 0  600000 950000 0  650000 950000 0  700000 950000 0  750000 950000 0  800000 950000 0  850000 950000 0  900000 950000 0  950000 950000 0  1000000 950000 0  0 1000000 0  50000 1000000 0  100000 1000000 0  150000 1000000 0  200000 1000000 0  250000 1000000 0  300000 1000000 0  350000 1000000 0  400000 1000000 0  450000 1000000 0  500000 1000000 0  550000 1000000 0  600000 1000000 0  650000 1000000 0  700000 1000000 0  750000 1000000 0  800000 1000000 0  850000 1000000 0  900000 1000000 0  950000 1000000 0  1000000 1000000 0  0 1050000 0  50000 1050000 0  100000 1050000 0  150000 1050000 0  200000 1050000 0  250000 1050000 0  300000 1050000 0  350000 1050000 0  400000 1050000 0  450000 1050000 0  500000 1050000 0  550000 1050000 0  600000 1050000 0  650000 1050000 0  700000 1050000 0  750000 1050000 0  800000 1050000 0  850000 1050000 0  900000 1050000 0  950000 1050000 0  1000000 1050000 0  0 1100000 0  50000 1100000 0  100000 1100000 0  150000 1100000 0  200000 1100000 0  250000 1100000 0  300000 1100000 0  350000 1100000 0  400000 1100000 0  450000 1100000 0  500000 1100000 0  550000 1100000 0  600000 1100000 0  650000 1100000 0  700000 1100000 0  750000 1100000 0  800000 1100000 0  850000 1100000 0  900000 1100000 0  950000 1100000 0  1000000 1100000 0  0 1150000 0  50000 1150000 0  100000 1150000 0  150000 1150000 0  200000 1150000 0  250000 1150000 0  300000 1150000 0  350000 1150000 0  400000 1150000 0  450000 1150000 0  500000 1150000 0  550000 1150000 0  600000 1150000 0  650000 1150000 0  700000 1150000 0  750000 1150000 0  800000 1150000 0  850000 1150000 0  900000 1150000 0  950000 1150000 0  1000000 1150000 0  0 1200000 0  50000 1200000 0  100000 1200000 0  150000 1200000 0  200000 1200000 0  250000 1200000 0  300000 1200000 0  350000 1200000 0  400000 1200000 0  450000 1200000 0  500000 1200000 0  550000 1200000 0  600000 1200000 0  650000 1200000 0  700000 1200000 0  750000 1200000 0  800000 1200000 0  850000 1200000 0  900000 1200000 0  950000 1200000 0  1000000 1200000 0  0 1250000 0  50000 1250000 0  100000 1250000 0  150000 1250000 0  200000 1250000 0  250000 1250000 0  300000 1250000 0  350000 1250000 0  400000 1250000 0  450000 1250000 0  500000 1250000 0  550000 1250000 0  600000 1250000 0  650000 1250000 0  700000 1250000 0  750000 1250000 0  800000 1250000 0  850000 1250000 0  900000 1250000 0  950000 1250000 0  1000000 1250000 0  0 1300000 0  50000 1300000 0  100000 1300000 0  150000 1300000 0  200000 1300000 0  250000 1300000 0  300000 1300000 0  350000 1300000 0  400000 1300000 0  450000 1300000 0  500000 1300000 0  550000 1300000 0  600000 1300000 0  650000 1300000 0  700000 1300000 0  750000 1300000 0  800000 1300000 0  850000 1300000 0  900000 1300000 0  950000 1300000 0  1000000 1300000 0  0 1350000 0  50000 1350000 0  100000 1350000 0  150000 1350000 0  200000 1350000 0  250000 1350000 0  300000 1350000 0  350000 1350000 0  400000 1350000 0  450000 1350000 0  500000 1350000 0  550000 1350000 0  600000 1350000 0  650000 1350000 0  700000 135
[...]
<PointData  Vectors="f_5995"> 
<DataArray  type="Float64"  Name="f_5995"  NumberOfComponents="3" format="ascii">1.8470426933698902e-12 3.3301103115603164e-12 0.0000000000000000e+00  8.0002177442465339e-08 2.3526797253768445e-12 0.0000000000000000e+00  8.0001669010728567e-08 9.3142403070792870e-13 0.0000000000000000e+00  8.0001105212537758e-08 2.4863840215866501e-13 0.0000000000000000e+00  8.0000904925394598e-08 9.0485645067901773e-14 0.0000000000000000e+00  8.0000787194483765e-08 6.0532147121133511e-14 0.0000000000000000e+00  8.0000705158834127e-08 4.3853898932652094e-14 0.0000000000000000e+00  8.0000651075323180e-08 2.9349969660606323e-14 0.0000000000000000e+00  8.0000618305836009e-08 1.7562031929473083e-14 0.0000000000000000e+00  8.0000602163991840e-08 7.5921623859968396e-15 0.0000000000000000e+00  8.0000600395363872e-08 -1.8375996458163884e-15 0.0000000000000000e+00  8.0000612700616233e-08 -1.1965107505460283e-14 0.0000000000000000e+00  8.0000640597674382e-08 -2.4388535436164715e-14 0.0000000000000000e+00  8.0000688289620334e-08 -4.1061772056423011e-14 0.0000000000000000e+00  8.0000765351848021e-08 -5.9887752136615637e-14 0.0000000000000000e+00  8.0000885081077447e-08 -6.6037687867744530e-14 0.0000000000000000e+00  8.0001038127900977e-08 -9.6646356756002927e-14 0.0000000000000000e+00  8.0001298054359079e-08 -6.2476503109415717e-13 0.0000000000000000e+00  8.0002311147598145e-08 -2.2804132917507942e-12 0.0000000000000000e+00  7.9996039653289241e-08 3.3934675479258069e-12 0.0000000000000000e+00  -5.9131736795592277e-12 5.1059923778007317e-12 0.0000000000000000e+00  1.3163306568407819e-12 2.6359356732481083e-12 0.0000000000000000e+00  1.2035121267210285e-08 -1.1458515602964322e-09 0.0000000000000000e+00  1.3899008257165081e-08 -9.0709143489079179e-10 0.0000000000000000e+00  1.5556806207485392e-08 -4.0467115521436751e-10 0.0000000000000000e+00  1.6133878478156704e-08 -2.4318153313218724e-10 0.0000000000000000e+00  1.6345363235190723e-08 -1.5215719045687950e-10 0.0000000000000000e+00  1.6461947436885468e-08 -9.2895321321821497e-11 0.0000000000000000e+00  1.6537218252287458e-08 -5.3470793776011798e-11 0.0000000000000000e+00  1.6584389576818458e-08 -2.5074292139621253e-11 0.0000000000000000e+00  1.6609985837571950e-08 -2.2446106635773216e-12 0.0000000000000000e+00  1.6617479792984579e-08 1.8488109811723065e-11 0.0000000000000000e+00  1.6607999182836001e-08 3.9852829375305171e-11 0.0000000000000000e+00  1.6580629576816512e-08 6.4707644734709613e-11 0.0000000000000000e+00  1.6532270588253240e-08 9.6929506114354741e-11 0.0000000000000000e+00  1.6457209272324527e-08 1.4262260497010830e-10 0.0000000000000000e+00  1.6347896545721578e-08 2.1119890507531127e-10 0.0000000000000000e+00  1.6197894775008971e-08 3.1780756534332227e-10 0.0000000000000000e+00  1.5953099673198949e-08 5.3964564923757724e-10 0.0000000000000000e+00  1.5070530098909727e-08 1.4094845187575698e-09 0.0000000000000000e+00  1.1501924962524779e-08 4.0353143789786518e-09 0.0000000000000000e+00  -3.8266454051214462e-12 3.5376821125624501e-12 0.0000000000000000e+00  4.5185797663223217e-13 1.3466263906306971e-12 0.0000000000000000e+00  3.3768703735809850e-10 -2.6256820713487266e-09 0.0000000000000000e+00  1.9281074560317678e-09 -1.2871398980030736e-09 0.0000000000000000e+00  1.6461428815565325e-09 -8.0970786705695312e-10 0.0000000000000000e+00  1.8769108635230879e-09 -5.1559997235526799e-10 0.0000000000000000e+00  2.0884811927384682e-09 -3.2950585162993283e-10 0.0000000000000000e+00  2.2173308607462815e-09 -2.1260011314809599e-10 0.0000000000000000e+00  2.2983244943934002e-09 -1.3426416041687378e-10 0.0000000000000000e+00  2.3497726542635170e-09 -7.7186516875332979e-11 0.0000000000000000e+00  2.3789990000140239e-09 -3.1316912048643560e-11 0.0000000000000000e+00  2.3894015285205205e-09 9.8613052943400629e-12 0.0000000000000000e+00  2.3823256191086681e-09 5.1436067583128143e-11 0.0000000000000000e+00  2.3575216925853690e-09 9.8488183775184329e-11 0.0000000000000000e+00  2.3133244092634428e-09 1.5744534566599920e-10 0.0000000000000000e+00  2.2469436610769241e-09 2.3796430713682209e-10 0.0000000000000000e+00  2.1552268228446006e-09 3.5669199149398523e-10 0.0000000000000000e+00  2.0333133026593667e-09 5.4887431783737475e-10 0.0000000000000000e+00  1.8571116966575707e-09 9.0325792026895817e-10 0.0000000000000000e+00  1.5741937555011627e-09 1.5584196506839210e-09 0.0000000000000000e+00  1.3876185117708425e-09 2.0550569238210616e-09 0.0000000000000000e+00  1.9428389310669441e-12 -2.3191533773329008e-12 0.0000000000000000e+00  1.6666684309907119e-13 9.1734379299433999e-13 0.0000000000000000e+00  -3.6560988392296762e-10 -1.5027757529410861e-09 0.0000000000000000e+00  -4.2610783475513951e-10 -1.4101234580542785e-09 0.0000000000000000e+00  -5.2213684818633149e-10 -9.8435190070353180e-10 0.0000000000000000e+00  -5.3473509307220184e-10 -6.5383626206347987e-10 0.0000000000000000e+00  -4.8147702090821829e-10 -4.4123527314089902e-10 0.0000000000000000e+00  -4.1381290500902279e-10 -2.9637458246975055e-10 0.0000000000000000e+00  -3.5924425371729818e-10 -1.9362798289427865e-10 0.0000000000000000e+00  -3.2136347198418204e-10 -1.1607554557003184e-10 0.0000000000000000e+00  -2.9859283680618368e-10 -5.2548101815908000e-11 0.0000000000000000e+00  -2.8950280618880642e-10 4.7163219807109355e-12 0.0000000000000000e+00  -2.9329272564868069e-10 6.1947121004238566e-11 0.0000000000000000e+00  -3.0963096743030022e-10 1.2522958021645759e-10 0.0000000000000000e+00  -3.3832805558381971e-10 2.0179888787274051e-10 0.0000000000000000e+00  -3.7862838536634217e-10 3.0168744586754559e-10 0.0000000000000000e+00  -4.2778769066608902e-10 4.4034382815514043e-10 0.0000000000000000e+00  -4.7810276526484022e-10 6.4208758274295849e-10 0.0000000000000000e+00  -5.0569115318549931e-10 9.3349741998020848e-10 0.0000000000000000e+00  -4.2489608564648351e-10 1.2680656677089480e-09 0.0000000000000000e+00  -6.6304006556089271e-11 1.2770451224550917e-09 0.0000000000000000e+00  5.2905776369833166e-13 -1.2052630509336486e-12 0.0000000000000000e+00  1.0053414887649301e-13 7.1250652847922907e-13 0.0000000000000000e+00  -2.9114685432413251e-10 -1.0102632893741797e-09 0.0000000000000000e+00  -5.5946766390675806e-10 -1.1476893393017774e-09 0.0000000000000000e+00  -6.9902944178421773e-10 -9.1145440716132096e-10 0.0000000000000000e+00  -7.8596275917264127e-10 -6.7497991136115226e-10 0.0000000000000000e+00  -8.0044722148233773e-10 -4.8211676199504613e-10 0.0000000000000000e+00  -7.8757343639135119e-10 -3.3727534090117256e-10 0.0000000000000000e+00  -7.6687925467220583e-10 -2.2715004809189391e-10 0.0000000000000000e+00  -7.4800203450340405e-10 -1.3970438432502262e-10 0.0000000000000000e+00  -7.3494365384248842e-10 -6.5816848097301412e-11 0.0000000000000000e+00  -7.2889850286398039e-10 1.6381174633437788e-12 0.0000000000000000e+00  -7.2992475577884130e-10 6.8726344066510259e-11 0.0000000000000000e+00  -7.3742465620636060e-10 1.4132736780255907e-10 0.0000000000000000e+00  -7.4993641684195633e-10 2.2595194608554483e-10 0.0000000000000000e+00  -7.6432887703485111e-10 3.3051066437986041e-10 0.0000000000000000e+00  -7.7406031882584606e-10 4.6467933568703918e-10 0.0000000000000000e+00  -7.6541391763929502e-10 6.3780858399858754e-10 0.0000000000000000e+00  -7.0952983668174041e-10 8.4699393983821770e-10 0.0000000000000000e+00  -5.5479748024886083e-10 1.0382177084020222e-09 0.0000000000000000e+00  -2.6701874870099038e-10 1.0000075979135114e-09 0.0000000000000000e+00  7.9764645816687686e-14 -8.9997806251518143e-13 0.0000000000000000e+00  7.9877646724624458e-14 5.6734575513094214e-13 0.0000000000000000e+00  -2.1136752319035818e-10 -7.7747091970202190e-10 0.0000000000000000e+00  -4.2949991400528295e-10 -9.0119843987256221e-10 0.0000000000000000e+00  -5.8681094377761041e-10 -7.8679555823027291e-10 0.0000000000000000e+00  -6.8530329576595084e-10 -6.2254100480075414e-10 0.0000000000000000e+00  -7.3617445890352864e-10 -4.7051258445750321e-10 0.0000000000000000e+00  -7.5581691868000846e-10 -3.4297599246434358e-10 0.0000000000000000e+00  -7.5973570078084752e-10 -2.3780810407890287e-10 0.0000000000000000e+00  -7.5736975174935937e-10 -1.4955735517386915e-10 0.0000000000000000e+00  -7.5366755880250658e-10 -7.2287605802370658e-11 0.0000000000000000e+00  -7.5095652922771348e-10 -5.4795851541404084e-13 0.0000000000000000e+00  -7.4989519028582041e-10 7.0673257609994894e-11 0.0000000000000000e+00  -7.4986909900159232e-10 1.4623879392249110e-10 0.0000000000000000e+00  -7.4889324729825357e-10 2.3112998813669260e-10 0.0000000000000000e+00  -7.4301362012222906e-10 3.3046804706523913e-10 0.0000000000000000e+00  -7.2511760104079994e-10 4.4878348339160576e-10 0.0000000000000000e+00  -6.8311198815810856e-10 5.8730240836494311e-10 0.0000000000000000e+00  -5.9854895194130909e-10 7.3668066234546001e-10 0.0000000000000000e+00  -4.5112761417384690e-10 8.5776521995569965e-10 0.0000000000000000e+00  -2.3815388275807914e-10 8.0425427197282202e-10 0.0000000000000000e+00  8.2708182288874042e-14 -7.1228627310600526e-13 0.0000000000000000e+00  6.4264800167172591e-14 4.5378827795540848e-13 0.0000000000000000e+00  -1.5804099390263538e-10 -6.1861282769777343e-10 0.0000000000000000e+00  -3.2619499839505028e-10 -7.2244128490237726e-10 0.0000000000000000e+00  -4.6488584915997116e-10 -6.5894533212580699e-10 0.0000000000000000e+00  -5.6337206700487869e-10 -5.4690527502825584e-10 0.0000000000000000e+00  -6.2704779223760317e-10 -4.3118705336055067e-10 0.0000000000000000e+00  -6.6395171392707918e-10 -3.2500782624201146e-10 0.0000000000000000e+00  -6.8360515622543314e-10 -2.3126815487886237e-10 0.0000000000000000e+00  -6.9296508199748778e-10 -1.4835756593714629e-10 0.0000000000000000e+00  -6.9649377596431538e-10 -7.3159321415812047e-11 0.0000000000000000e+00  -6.9659151720876073e-10 -2.1011125269675488e-12 0.0000000000000000e+00  -6.9407522774691510e-10 6.8440625878789436e-11 0.0000000000000000e+00  -6.8841278429682896e-10 1.4200734464866695e-10 0.0000000000000000e+00  -6.7767666265166734e-10 2.2194417944011959e-10 0.0000000000000000e+00  -6.5824284179107167e-10 3.1106530791504152e-10 0.0000000000000000e+00  -6.2432658990609925e-10 4.1078476229405898e-10 0.0000000000000000e+00  -5.6771314741576572e-10 5.1924482295441837e-10 0.0000000000000000e+00  -4.7874200923008583e-10 6.2738053498935198e-10 0.0000000000000000e+00  -3.5033647698575771e-10 7.0650804205200631e-10 0.0000000000000000e+00  -1.8469376157506199e-10 6.4622068597028712e-10 0.0000000000000000e+00  8.6790346858288228e-14 -5.5618898568274175e-13 0.0000000000000000e+00  5.1813318304712946e-14 3.6429023023141441e-13 0.0000000000000000e+00  -1.2348584843993928e-10 -4.9611016249042291e-10 0.0000000000000000e+00  -2.5685786648290797e-10 -5.8490207275962738e-10 0.0000000000000000e+00  -3.7366716983570861e-10 -5.4560089329723332e-10 0.0000000000000000e+00  -4.6498197423489520e-10 -4.6744887024119843e-10 0.0000000000000000e+00  -5.3092655056474462e-10 -3.7979548338509769e-10 0.0000000000000000e+00  -5.7550150731708501e-10 -2.9388589355325306e-10 0.0000000000000000e+00  -6.0383990779411886e-10 -2.1358245560951357e-10 0.0000000000000000e+00  -6.2056356389012518e-10 -1.3932059095433457e-10 0.0000000000000000e+00  -6.2899836204440794e-10 -6.9843470273880122e-11 0.0000000000000000e+00  -6.3112126652743319e-10 -3.1122816221591559e-12 0.0000000000000000e+00  -6.2767388777342782e-10 6.3191884959128773e-11 0.0000000000000000e+00  -6.1824686845861627e-10 1.3136194840981326e-10 0.0000000000000000e+00  -6.0127799397083644e-10 2.0338035183326947e-10 0.0000000000000000e+00  -5.7398569276344709e-10 2.8050874101797418e-10 0.0000000000000000e+00  -5.3236378553689772e-10 3.6261219916712676e-10 0.0000000000000000e+00  -4.7152940572351954e-10 4.4705469701243458e-10 0.0000000000000000e+00  -3.8689868821785533e-10 5.2640704924485372e-10 0.0000000000000000e+00  -2.7647405528747338e-10 5.7927619213652199e-10 0.0000000000000000e+00  -1.4336639943150235e-10 5.2066434273628931e-10 0.0000000000000000e+00  7.0983669346488403e-14 -4.4124541659145472e-13 0.0000000000000000e+00  4.2814757853233499e-14 2.9208646059936645e-13 0.0000000000000000e+00  -1.0028934787225083e-10 -3.9810627380299943e-10 0.0000000000000000e+00  -2.0936951617819210e-10 -4.7315302003622821e-10 0.0000000000000000e+00  -3.0831562216026014e-10 -4.4783407612943360e-10 0.0000000000000000e+00  -3.9034182679022815e-10 -3.9160051565243751e-10 0.0000000000000000e+00  -4.5398966862525243e-10 -3.2508517150151211e-10 0.0000000000000000e+00  -5.0068625956178974e-10 -2.5655312162152841e-10 0.0000000000000000e+00  -5.3304126092205862e-10 -1.8958100025408348e-10 0.0000000000000000e+00  -5.5380142890937730e-10 -1.2537053335558816e-10 0.0000000000000000e+00  -5.6517794927508360e-10 -6.3726435411600045e-11 0.0000000000000000e+00  -5.6859394589359039e-10 -3.6889659219371673e-12 0.0000000000000000e+00  -5.6461852168472546e-10 5.6038408258069197e-11 0.0000000000000000e+00  -5.5297010009325989e-10 1.1675902995773861e-10 0.0000000000000000e+00  -5.3253751503128283e-10 1.7947356560179009e-10 0.0000000000000000e+00  -5.0143767151252843e-10 2.4452140515363221e-10 0.0000000000000000e+00  -4.5719541321230701e-10 3.1112542427272815e-10 0.0000000000000000e+00  -3.9719354910802684e-10 3.7676476843618465e-10 0.0000000000000000e+00  -3.1953759326893360e-10 4.3571841021122018e-10 0.0000000000000000e+00  -2.2428074192047452e-10 4.7200044976567479e-10 0.0000000000000000e+00  -1.1458910225870636e-10 4.1957672222240480e-10 0.0000000000000000e+00  5.6072935291327673e-14 -3.5364672076400247e-13 0.0000000000000000e+00  3.6415635082454305e-14 2.3202377777887789e-13 0.0000000000000000e+00  -8.4122141527596207e-11 -3.1729881143697361e-10 0.0000000000000000e+00  -1.7585551203191257e-10 -3.7957303978369642e-10 0.0000000000000000e+00  -2.6096933753112518e-10 -3.6300413296992580e-10 0.0000000000000000e+00  -3.3420684059017477e-10 -3.2181097999995235e-10 0.0000000000000000e+00  -3.9376885500173139e-10 -2.7124954034823873e-10 0.0000000000000000e+00  -4.3975903339172709e-10 -2.1721392767806923e-10 0.0000000000000000e+00  -4.7330048569586197e-10 -1.6259914601377822e-10 0.0000000000000000e+00  -4.9585287140878212e-10 -1.0873476029052822e-10 0.0000000000000000e+00  -5.0873980796099547e-10 -5.5949212448285785e-11 0.0000000000000000e+00  -5.1287759283198043e-10 -3.9529602461584209e-12 0.0000000000000000e+00  -5.0865504923623845e-10 4.7843701012719838e-11 0.0000000000000000e+00  -4.9590113945139027e-10 1.0005181641253968e-10 0.0000000000000000e+00  -4.7391341027866563e-10 1.5303854212649359e-10 0.0000000000000000e+00  -4.4155654616698210e-10 2.0665479029441309e-10 0.0000000000000000e+00  -3.9747231536929380e-10 2.5994742575013409e-10 0.0000000000000000e+00  -3.4045532740938893e-10 3.1080383403774309e-10 0.0000000000000000e+00  -2.7001534297980642e-10 3.5496606311030032e-10 0.0000000000000000e+00  -1.8704660163777568e-10 3.8051916232850337e-10 0.0000000000000000e+00  -9.4470361334126793e-11 3.3606514086131677e-10 0.0000000000000000e+00  4.5717497675236456e-14 -2.8304973254929156e-13 0.0000000000000000e+00  3.1819573215333687e-14 1.8060915429095393e-13 0.0000000000000000e+00  -7.2615335402515514e-11 -2.4871709004976749e-10 0.0000000000000000e+00  -1.5177562278909162e-10 -2.9932516703178751e-10 0.0000000000000000e+00  -2.2631594253976306e-10 -2.8849029489084351e-10 0.0000000000000000e+00  -2.9205549897688453e-10 -2.5825100701532505e-10 0.0000000000000000e+00  -3.4720301266583346e-10 -2.2005750801949163e-10 0.0000000000000000e+00  -3.9124154691025145e-10 -1.7814337790136152e-10 0.0000000000000000e+00  -4.2443500035545398e-10 -1.3470083379031890e-10 0.0000000000000000e+00  -4.4741967633328124e-10 -9.0924359676907703e-11 0.0000000000000000e+00  -4.6088350660781760e-10 -4.7337255349999162e-11 0.0000000000000000e+00  -4.6534864090952225e-10 -4.0159967436936950e-12 0.0000000000000000e+00  -4.6105307570739010e-10 3.9195193153252503e-11 0.0000000000000000e+00  -4.4791063188640252e-10 8.2476429154142919e-11 0.0000000000000000e+00  -4.2553754153944326e-10 1.2583141885328059e-10 0.0000000000000000e+00  -3.9334829714851261e-10 1.6889660611661833e-10 0.0000000000000000e+00  -3.5073425801052727e-10 2.1076564199968259e-10 0.0000000000000000e+00  -2.9733536883164097e-10 2.4978678200972582e-10 0.0000000000000000e+00  -2.3339078261263721e-10 2.8287369379673164e-10 0.0000000000000000e+00  -1.6011821966051395e-10 3.0123931010765431e-10 0.0000000000000000e+00  -8.0140404673432896e-11 2.6526115440068665e-10 0.0000000000000000e+00  3.8515199296450176e-14 -2.2409256344785255e-13 0.0000000000000000e+00  2.8542673648989413e-14 1.3540805628959316e-13 0.0000000000000000e+00  -6.4421534711333078e-11 -1.8891102614607253e-10 0.0000000000000000e+00  -1.3446681607273228e-10 -2.2890920989676249e-10 0.0000000000000000e+00  -2.0104863247354232e-10 -2.2204404433898580e-10 0.0000000000000000e+00  -2.6074200689037815e-10 -2.0021944631972613e-10 0.0000000000000000e+00  -3.1186153400034180e-10 -1.7198572776404679e-10 0.0000000000000000e+00  -3.5360733218591718e-10 -1.4038589161809676e-10 0.0000000000000000e+00  -3.8576418305988825e-10 -1.0701978559463577e-10 0.0000000000000000e+00  -4.0846105669666303e-10 -7.2853890887386885e-11 0.0000000000000000e+00  -4.2196231219568865e-10 -3.8424611362612129e-11 0.0000000000000000e+00  -4.2651087789661639e-10 -3.9679704472922590e-12 0.0000000000000000e+00  -4.2223270056099253e-10 3.0444330193992257e-11 0.0000000000000000e+00  -4.0910130170643128e-10 6.4762193070345698e-11 0.0000000000000000e+00  -3.8695911151601185e-10 9.8817385196627188e-11 0.0000000000000000e+00  -3.5559502087139454e-10 1.3219731711367081e-10 0.0000000000000000e+00  -3.1487824804266848e-10 1.6414128021628315e-10 0.0000000000000000e+00  -2.6494245044321777e-10 1.9342633103156480e-10 0.0000000000000000e+00  -2.0640152269816822e-10 2.1789117877339428e-10 0.0000000000000000e+00  -1.4057645701140339e-10 2.3123870873271152e-10 0.0000000000000000e+00  -6.9838988809061220e-11 2.0371726221270415e-10 0.0000000000000000e+00  3.3340532863697734e-14 -1.7348921957541629e-13 0.0000000000000000e+00  2.6302442055449782e-14 9.4602957661067041e-14 0.0000000000000000e+00  -5.8744125587426065e-11 -1.3535645549468972e-10 0.0000000000000000e+00  -1.2232729454944599e-10 -1.6564677690328331e-10 0.0000000000000000e+00  -1.8310538001971934e-10 -1.6172126915208805e-10 0.0000000000000000e+00  -2.3818235455478911e-10 -1.4671159535523083e-10 0.0000000000000000e+00  -2.8599172433915873e-10 -1.2683792251864734e-10 0.0000000000000000e+00  -3.2561174550503698e-10 -1.0424676094353244e-10 0.0000000000000000e+00  -3.5656787028242993e-10 -8.0060287608565640e-11 0.0000000000000000e+00  -3.7868802861553481e-10 -5.4998002750529683e-11 0.0000000000000000e+00  -3.9196941999624573e-10 -2.9514649639532563e-11 0.0000000000000000e+00  -3.9647042500425528e-10 -3.8747532391706315e-12 0.0000000000000000e+00  -3.9224012745655139e-10 2.1765406901133290e-11 0.0000000000000000e+00  -3.7929083325121361e-10 4.7266719898490401e-11 0.0000000000000000e+00  -3.5761424773377351e-10 7.2416767247670136e-11 0.0000000000000000e+00  -3.2723950255944513e-10 9.6850941956614191e-11 0.0000000000000000e+00  -2.8832809116809576e-10 1.1999396391776458e-10 0.0000000000000000e+00  -2.4129545284502400e-10 1.4100087045791158e-10 0.0000000000000000e+00  -1.8694482035308209e-10 1.5845450684908328e-10 0.0000000000000000e+00  -1.2661467647493167e-10 1.6813003549872624e-10 0.0000000000000000e+00  -6.2502043429391098e-11 1.4887073210889619e-10 0.0000000000000000e+00  2.9617196968928098e-14 -1.2889297477105378e-13 0.0000000000000000e+00  2.4930002788542070e-14 5.6744673047178518e-14 0.0000000000000000e+00  -5.5107357422022117e-11 -8.6085053667752410e-11 0.0000000000000000e+00  -1.1438617527796740e-10 -1.0738342371729689e-10 0.0000000000000000e+00  -1.7120246852186798e-10 -1.0581227581728609e-10 0.0000000000000000e+00  -2.2302540801372113e-10 -9.6627603233501415e-11 0.0000000000000000e+00  -2.6838948506678028e-10 -8.4079266371105610e-11 0.0000000000000000e+00  -3.0632777888058635e