<?xml version="1.0"?>
<VTKFile type="UnstructuredGrid"  version="0.1"  >
<UnstructuredGrid>
<Piece  NumberOfPoints="651" NumberOfCells="1200">
<Points>
<DataArray  type="Float64"  NumberOfComponents="3"  format="ascii">0 0 0  50000 0 0  100000 0 0  150000 0 0  200000 0 0  250000 0 0  300000 0 0  350000 0 0  400000 0 0  450000 0 0  500000 0 0  550000 0 0  600000 0 0  650000 0 0  700000 0 0  750000 0 0  800000 0 0  850000 0 0  900000 0 0  950000 0 0  1000000 0 0  0 50000 0  50000 50000 0  100000 50000 0  150000 50000 0  200000 50000 0  250000 50000 0  300000 50000 0  350000 50000 0  400000 50000 0  450000 50000 0  500000 50000 0  550000 50000 0  600000 50000 0  650000 50000 0  700000 50000 0  750000 50000 0  800000 50000 0  850000 50000 0  900000 50000 0  950000 50000 0  1000000 50000 0  0 100000 0  50000 100000 0  100000 100000 0  150000 100000 0  200000 100000 0  250000 100000 0  300000 100000 0  350000 100000 0  400000 100000 0  450000 100000 0  500000 100000 0  550000 100000 0  600000 100000 0  650000 100000 0  700000 100000 0  750000 100000 0  800000 100000 0  850000 100000 0  900000 100000 0  950000 100000 0  1000000 100000 0  0 150000 0  50000 150000 0  100000 150000 0  150000 150000 0  200000 150000 0  250000 150000 0  300000 150000 0  350000 150000 0  400000 150000 0  450000 150000 0  500000 150000 0  550000 150000 0  600000 150000 0  650000 150000 0  700000 150000 0  750000 150000 0  800000 150000 0  850000 150000 0  900000 150000 0  950000 150000 0  1000000 150000 0  0 200000 0  50000 200000 0  100000 200000 0  150000 200000 0  200000 200000 0  250000 200000 0  300000 200000 0  350000 200000 0  400000 200000 0  450000 200000 0  500000 200000 0  550000 200000 0  600000 200000 0  650000 200000 0  700000 200000 0  750000 200000 0  800000 200000 0  850000 200000 0  900000 200000 0  950000 200000 0  1000000 200000 0  0 250000 0  50000 250000 0  100000 250000 0  150000 250000 0  200000 250000 0  250000 250000 0  300000 250000 0  350000 250000 0  400000 250000 0  450000 250000 0  500000 250000 0  550000 250000 0  600000 250000 0  650000 250000 0  700000 250000 0  750000 250000 0  800000 250000 0  850000 250000 0  900000 250000 0  950000 250000 0  1000000 250000 0  0 300000 0  50000 300000 0  100000 300000 0  150000 300000 0  200000 300000 0  250000 300000 0  300000 300000 0  350000 300000 0  400000 300000 0  450000 300000 0  500000 300000 0  550000 300000 0  600000 300000 0  650000 300000 0  700000 300000 0  750000 300000 0  800000 300000 0  850000 300000 0  900000 300000 0  950000 300000 0  1000000 300000 0  0 350000 0  50000 350000 0  100000 350000 0  150000 350000 0  200000 350000 0  250000 350000 0  300000 350000 0  350000 350000 0  400000 350000 0  450000 350000 0  500000 350000 0  550000 350000 0  600000 350000 0  650000 350000 0  700000 350000 0  750000 350000 0  800000 350000 0  850000 350000 0  900000 350000 0  950000 350000 0  1000000 350000 0  0 400000 0  50000 400000 0  100000 400000 0  150000 400000 0  200000 400000 0  250000 400000 0  300000 400000 0  350000 400000 0  400000 400000 0  450000 400000 0  500000 400000 0  550000 400000 0  600000 400000 0  650000 400000 0  700000 400000 0  750000 400000 0  800000 400000 0  850000 400000 0  900000 400000 0  950000 400000 0  1000000 400000 0  0 450000 0  50000 450000 0  100000 450000 0  150000 450000 0  200000 450000 0  250000 450000 0  300000 450000 0  350000 450000 0  400000 450000 0  450000 450000 0  500000 450000 0  550000 450000 0  600000 450000 0  650000 450000 0  700000 450000 0  750000 450000 0  800000 450000 0  850000 450000 0  900000 450000 0  950000 450000 0  1000000 450000 0  0 500000 0  50000 500000 0  100000 500000 0  150000 500000 0  200000 500000 0  250000 500000 0  300000 500000 0  350000 500000 0  400000 500000 0  450000 500000 0  500000 500000 0  550000 500000 0  600000 500000 0  650000 500000 0  700000 500000 0  750000 500000 0  800000 500000 0  850000 500000 0  900000 500000 0  950000 500000 0  1000000 500000 0  0 550000 0  50000 550000 0  100000 550000 0  150000 550000 0  200000 550000 0  250000 550000 0  300000 550000 0  350000 550000 0  400000 550000 0  450000 550000 0  500000 550000 0  550000 550000 0  600000 550000 0  650000 550000 0  700000 550000 0  750000 550000 0  800000 550000 0  850000 550000 0  900000 550000 0  950000 550000 0  1000000 550000 0  0 600000 0  50000 600000 0  100000 600000 0  150000 600000 0  200000 600000 0  250000 600000 0  300000 600000 0  350000 600000 0  400000 600000 0  450000 600000 0  500000 600000 0  550000 600000 0  600000 600000 0  650000 600000 0  700000 600000 0  750000 600000 0  800000 600000 0  850000 600000 0  900000 600000 0  950000 600000 0  1000000 600000 0  0 650000 0  50000 650000 0  100000 650000 0  150000 650000 0  200000 650000 0  250000 650000 0  300000 650000 0  350000 650000 0  400000 650000 0  450000 650000 0  500000 650000 0  550000 650000 0  600000 650000 0  650000 650000 0  700000 650000 0  750000 650000 0  800000 650000 0  850000 650000 0  900000 650000 0  950000 650000 0  1000000 650000 0  0 700000 0  50000 700000 0  100000 700000 0  150000 700000 0  200000 700000 0  250000 700000 0  300000 700000 0  350000 700000 0  400000 700000 0  450000 700000 0  500000 700000 0  550000 700000 0  600000 700000 0  650000 700000 0  700000 700000 0  750000 700000 0  800000 700000 0  850000 700000 0  900000 700000 0  950000 700000 0  1000000 700000 0  0 750000 0  50000 750000 0  100000 750000 0  150000 750000 0  200000 750000 0  250000 750000 0  300000 750000 0  350000 750000 0  400000 750000 0  450000 750000 0  500000 750000 0  550000 750000 0  600000 750000 0  650000 750000 0  700000 750000 0  750000 750000 0  800000 750000 0  850000 750000 0  900000 750000 0  950000 750000 0  1000000 750000 0  0 800000 0  50000 800000 0  100000 800000 0  150000 800000 0  200000 800000 0  250000 800000 0  300000 800000 0  350000 800000 0  400000 800000 0  450000 800000 0  500000 800000 0  550000 800000 0  600000 800000 0  650000 800000 0  700000 800000 0  750000 800000 0  800000 800000 0  850000 800000 0  900000 800000 0  950000 800000 0  1000000 800000 0  0 850000 0  50000 850000 0  100000 850000 0  150000 850000 0  200000 850000 0  250000 850000 0  300000 850000 0  350000 850000 0  400000 850000 0  450000 850000 0  500000 850000 0  550000 850000 0  600000 850000 0  650000 850000 0  700000 850000 0  750000 850000 0  800000 850000 0  850000 850000 0  900000 850000 0  950000 850000 0  1000000 850000 0  0 900000 0  50000 900000 0  100000 900000 0  150000 900000 0  200000 900000 0  250000 900000 0  300000 900000 0  350000 900000 0  400000 900000 0  450000 900000 0  500000 900000 0  550000 900000 0  600000 900000 0  650000 900000 0  700000 900000 0  750000 900000 0  800000 900000 0  850000 900000 0  900000 900000 0  950000 900000 0  1000000 900000 0  0 950000 0  50000 950000 0  100000 950000 0  150000 950000 0  200000 950000 0  250000 950000 0  300000 950000 0  350000 950000 0  400000 950000 0  450000 950000 0  500000 950000 0  550000 950000 0  600000 950000 0  650000 950000 0  700000 950000 0  750000 950000 0  800000 950000 0  850000 950000 0  900000 950000 0  950000 950000 0  1000000 950000 0  0 1000000 0  50000 1000000 0  100000 1000000 0  150000 1000000 0  200000 1000000 0  250000 1000000 0  300000 1000000 0  350000 1000000 0  400000 1000000 0  450000 1000000 0  500000 1000000 0  550000 1000000 0  600000 1000000 0  650000 1000000 0  700000 1000000 0  750000 1000000 0  800000 1000000 0  850000 1000000 0  900000 1000000 0  950000 1000000 0  1000000 1000000 0  0 1050000 0  50000 1050000 0  100000 1050000 0  150000 1050000 0  200000 1050000 0  250000 1050000 0  300000 1050000 0  350000 1050000 0  400000 1050000 0  450000 1050000 0  500000 1050000 0  550000 1050000 0  600000 1050000 0  650000 1050000 0  700000 1050000 0  750000 1050000 0  800000 1050000 0  850000 1050000 0  900000 1050000 0  950000 1050000 0  1000000 1050000 0  0 1100000 0  50000 1100000 0  100000 1100000 0  150000 1100000 0  200000 1100000 0  250000 1100000 0  300000 1100000 0  350000 1100000 0  400000 1100000 0  450000 1100000 0  500000 1100000 0  550000 1100000 0  600000 1100000 0  650000 1100000 0  700000 1100000 0  750000 1100000 0  800000 1100000 0  850000 1100000 0  900000 1100000 0  950000 1100000 0  1000000 1100000 0  0 1150000 0  50000 1150000 0  100000 1150000 0  150000 1150000 0  200000 1150000 0  250000 1150000 0  300000 1150000 0  350000 1150000 0  400000 1150000 0  450000 1150000 0  500000 1150000 0  550000 1150000 0  600000 1150000 0  650000 1150000 0  700000 1150000 0  750000 1150000 0  800000 1150000 0  850000 1150000 0  900000 1150000 0  950000 1150000 0  1000000 1150000 0  0 1200000 0  50000 1200000 0  100000 1200000 0  150000 1200000 0  200000 1200000 0  250000 1200000 0  300000 1200000 0  350000 1200000 0  400000 1200000 0  450000 1200000 0  500000 1200000 0  550000 1200000 0  600000 1200000 0  650000 1200000 0  700000 1200000 0  750000 1200000 0  800000 1200000 0  850000 1200000 0  900000 1200000 0  950000 1200000 0  1000000 1200000 0  0 1250000 0  50000 1250000 0  100000 1250000 0  150000 1250000 0  200000 1250000 0  250000 1250000 0  300000 1250000 0  350000 1250000 0  400000 1250000 0  450000 1250000 0  500000 1250000 0  550000 1250000 0  600000 1250000 0  650000 1250000 0  700000 1250000 0  750000 1250000 0  800000 1250000 0  850000 1250000 0  900000 1250000 0  950000 1250000 0  1000000 1250000 0  0 1300000 0  50000 1300000 0  100000 1300000 0  150000 1300000 0  200000 1300000 0  250000 1300000 0  300000 1300000 0  350000 1300000 0  400000 1300000 0  450000 1300000 0  500000 1300000 0  550000 1300000 0  600000 1300000 0  650000 1300000 0  700000 1300000 0  750000 1300000 0  800000 1300000 0  850000 1300000 0  900000 1300000 0  950000 1300000 0  1000000 1300000 0  0 1350000 0  50000 1350000 0  100000 1350000 0  150000 1350000 0  200000 1350000 0  250000 1350000 0  300000 1350000 0  350000 1350000 0  400000 1350000 0  450000 1350000 0  500000 1350000 0  550000 1350000 0  600000 1350000 0  650000 1350000 0  700000 135
[...]
<PointData  Vectors="f_5995"> 
<DataArray  type="Float64"  Name="f_5995"  NumberOfComponents="3" format="ascii">1.3956231649094932e-12 2.8831839655272093e-12 0.0000000000000000e+00  8.0001872548852206e-08 1.9939966483382199e-12 0.0000000000000000e+00  8.0001922682078216e-08 1.0996715393540254e-12 0.0000000000000000e+00  8.0001140756391284e-08 3.1319972774611772e-13 0.0000000000000000e+00  8.0000883591967413e-08 7.4280020352029668e-14 0.0000000000000000e+00  8.0000784407724630e-08 5.1108782411040602e-14 0.0000000000000000e+00  8.0000710011685967e-08 4.4965066998502750e-14 0.0000000000000000e+00  8.0000655061252442e-08 3.0965333681760397e-14 0.0000000000000000e+00  8.0000621379681663e-08 1.7807866874744026e-14 0.0000000000000000e+00  8.0000605317408709e-08 7.3553059529352480e-15 0.0000000000000000e+00  8.0000604109130040e-08 -2.1321487763975108e-15 0.0000000000000000e+00  8.0000617304686079e-08 -1.2754722601295128e-14 0.0000000000000000e+00  8.0000646682120320e-08 -2.7707729830924791e-14 0.0000000000000000e+00  8.0000699465581013e-08 -4.8012471937792876e-14 0.0000000000000000e+00  8.0000795531543787e-08 -4.6992677613180851e-14 0.0000000000000000e+00  8.0000933923788093e-08 2.8260219474475155e-14 0.0000000000000000e+00  8.0000948823380491e-08 -2.6981274149220240e-13 0.0000000000000000e+00  8.0001065064385873e-08 -3.3785936571575734e-12 0.0000000000000000e+00  8.0002143235550684e-08 -7.1135426031559694e-12 0.0000000000000000e+00  7.9957369606256335e-08 3.9549673167745915e-11 0.0000000000000000e+00  -5.3189574938052359e-11 5.2393606998932292e-11 0.0000000000000000e+00  9.5199721369453947e-13 2.3336228727960152e-12 0.0000000000000000e+00  1.2079407355316110e-08 -1.1471514470833981e-09 0.0000000000000000e+00  1.3939841866076033e-08 -9.1024308717243690e-10 0.0000000000000000e+00  1.5602291734199453e-08 -4.0795091065942750e-10 0.0000000000000000e+00  1.6181133816637376e-08 -2.4673754276594304e-10 0.0000000000000000e+00  1.6392711184196205e-08 -1.5594089149909592e-10 0.0000000000000000e+00  1.6509057424249343e-08 -9.6770028851671009e-11 0.0000000000000000e+00  1.6584136980011153e-08 -5.7381464882064419e-11 0.0000000000000000e+00  1.6631193403735039e-08 -2.9008211241820542e-11 0.0000000000000000e+00  1.6656729535710760e-08 -6.1990251874831536e-12 0.0000000000000000e+00  1.6664205250695890e-08 1.4513884275131628e-11 0.0000000000000000e+00  1.6654745112567364e-08 3.5857687363192636e-11 0.0000000000000000e+00  1.6627438512855928e-08 6.0687915665888036e-11 0.0000000000000000e+00  1.6579201358718526e-08 9.2873725923102037e-11 0.0000000000000000e+00  1.6504361134346132e-08 1.3849435257670255e-10 0.0000000000000000e+00  1.6395387321989622e-08 2.0695174199295160e-10 0.0000000000000000e+00  1.6245634543139798e-08 3.1366865924941615e-10 0.0000000000000000e+00  1.6000998652699751e-08 5.3658368719450706e-10 0.0000000000000000e+00  1.5121556752211978e-08 1.4058054866511040e-09 0.0000000000000000e+00  1.1549145652128866e-08 4.0147742196812893e-09 0.0000000000000000e+00  -3.9981439955605247e-11 4.2212112574134722e-11 0.0000000000000000e+00  6.1627857665469844e-13 1.5990458274344145e-12 0.0000000000000000e+00  3.4624545595834435e-10 -2.6265865537378640e-09 0.0000000000000000e+00  1.9475700557747337e-09 -1.2864427808107571e-09 0.0000000000000000e+00  1.6648153699754560e-09 -8.0973213602650617e-10 0.0000000000000000e+00  1.8953155787110994e-09 -5.1608931328119373e-10 0.0000000000000000e+00  2.1071537958688529e-09 -3.3031752039465601e-10 0.0000000000000000e+00  2.2360417122975223e-09 -2.1359706957925600e-10 0.0000000000000000e+00  2.3169622828549445e-09 -1.3536421248072709e-10 0.0000000000000000e+00  2.3683395261064330e-09 -7.8354797612030576e-11 0.0000000000000000e+00  2.3975240869305880e-09 -3.2538497829453689e-11 0.0000000000000000e+00  2.4079152364984183e-09 8.5927836843624548e-12 0.0000000000000000e+00  2.4008581059254663e-09 5.0121215565579549e-11 0.0000000000000000e+00  2.3761065909983990e-09 9.7121568138562301e-11 0.0000000000000000e+00  2.3320049618168373e-09 1.5601292278981056e-10 0.0000000000000000e+00  2.2657774641448733e-09 2.3644367851466886e-10 0.0000000000000000e+00  2.1742665664139826e-09 3.5507742773623430e-10 0.0000000000000000e+00  2.0525519211156112e-09 5.4720899997330399e-10 0.0000000000000000e+00  1.8765090330731089e-09 9.0133036598281537e-10 0.0000000000000000e+00  1.5931111101314556e-09 1.5545979411997261e-09 0.0000000000000000e+00  1.3982004828676648e-09 2.0473869331781405e-09 0.0000000000000000e+00  6.7764085833963293e-12 -2.1510367152719434e-12 0.0000000000000000e+00  2.3012088787225575e-13 9.5049033006764034e-13 0.0000000000000000e+00  -3.6417278064910840e-10 -1.5015443584927114e-09 0.0000000000000000e+00  -4.2068726366793909e-10 -1.4088647337414273e-09 0.0000000000000000e+00  -5.1628000588892522e-10 -9.8336556268717579e-10 0.0000000000000000e+00  -5.2866226946437077e-10 -6.5329775226605841e-10 0.0000000000000000e+00  -4.7556087513367852e-10 -4.4098633865895517e-10 0.0000000000000000e+00  -4.0792993681670946e-10 -2.9630459419922330e-10 0.0000000000000000e+00  -3.5337246941983696e-10 -1.9368270397794928e-10 0.0000000000000000e+00  -3.1551244618836578e-10 -1.1622347441076436e-10 0.0000000000000000e+00  -2.9275776082770213e-10 -5.2771410825162695e-11 0.0000000000000000e+00  -2.8366936864124174e-10 4.4257863040925982e-12 0.0000000000000000e+00  -2.8744301196566859e-10 6.1590073946474986e-11 0.0000000000000000e+00  -3.0374476906441579e-10 1.2479966416416016e-10 0.0000000000000000e+00  -3.3238330676501978e-10 2.0128212687091735e-10 0.0000000000000000e+00  -3.7260511540865527e-10 3.0106203540055664e-10 0.0000000000000000e+00  -4.2167997855175419e-10 4.3957428348156696e-10 0.0000000000000000e+00  -4.7194216219585809e-10 6.4107907571684334e-10 0.0000000000000000e+00  -4.9964918039218979e-10 9.3198659629244679e-10 0.0000000000000000e+00  -4.1976892516840659e-10 1.2657068709014768e-09 0.0000000000000000e+00  -6.3973078521338691e-11 1.2743755056110894e-09 0.0000000000000000e+00  3.2790782442308551e-12 -9.7070727612810194e-13 0.0000000000000000e+00  8.4854125808543838e-14 6.9043878425702714e-13 0.0000000000000000e+00  -2.9066895578275986e-10 -1.0082826847751467e-09 0.0000000000000000e+00  -5.5802927472832128e-10 -1.1464847938401645e-09 0.0000000000000000e+00  -6.9686674041027316e-10 -9.1040805636329196e-10 0.0000000000000000e+00  -7.8380108044240843e-10 -6.7425410946181689e-10 0.0000000000000000e+00  -7.9824598965558260e-10 -4.8161350277797704e-10 0.0000000000000000e+00  -7.8537574666148790e-10 -3.3693688768879127e-10 0.0000000000000000e+00  -7.6469359311381692e-10 -2.2693790027958642e-10 0.0000000000000000e+00  -7.4582240189574975e-10 -1.3959374876591481e-10 0.0000000000000000e+00  -7.3276582300179743e-10 -6.5793087020115318e-11 0.0000000000000000e+00  -7.2671672348087509e-10 1.5819857815409979e-12 0.0000000000000000e+00  -7.2773111192280482e-10 6.8590434875884992e-11 0.0000000000000000e+00  -7.3521071416962013e-10 1.4110489632652445e-10 0.0000000000000000e+00  -7.4769599998941651e-10 2.2562833486989289e-10 0.0000000000000000e+00  -7.6206320698386176e-10 3.3006048881075587e-10 0.0000000000000000e+00  -7.7178774201855018e-10 4.6405665901241517e-10 0.0000000000000000e+00  -7.6319159921362774e-10 6.3692756231174056e-10 0.0000000000000000e+00  -7.0750285318216037e-10 8.4571818980061696e-10 0.0000000000000000e+00  -5.5321142023299570e-10 1.0363914290587869e-09 0.0000000000000000e+00  -2.6592365251032413e-10 9.9774394324207101e-10 0.0000000000000000e+00  2.5232518688939005e-13 -8.0971631746701137e-13 0.0000000000000000e+00  7.1019854003481235e-14 5.6398895821875015e-13 0.0000000000000000e+00  -2.1114337786643569e-10 -7.7573715599500387e-10 0.0000000000000000e+00  -4.2885212999918264e-10 -8.9996391962637922e-10 0.0000000000000000e+00  -5.8582454631173995e-10 -7.8588154028864665e-10 0.0000000000000000e+00  -6.8418846879909123e-10 -6.2183251444402528e-10 0.0000000000000000e+00  -7.3500418972550652e-10 -4.6997974610749740e-10 0.0000000000000000e+00  -7.5462452647646809e-10 -3.4258818878244727e-10 0.0000000000000000e+00  -7.5853019551795838e-10 -2.3753971798893444e-10 0.0000000000000000e+00  -7.5615780621558900e-10 -1.4939085310316812e-10 0.0000000000000000e+00  -7.5245086977309905e-10 -7.2211869668583052e-11 0.0000000000000000e+00  -7.4973451400566884e-10 -5.5781600460444469e-13 0.0000000000000000e+00  -7.4866679734630427e-10 7.0577215019102655e-11 0.0000000000000000e+00  -7.4863440093271261e-10 1.4604993087811591e-10 0.0000000000000000e+00  -7.4765609705631192e-10 2.3083463972904327e-10 0.0000000000000000e+00  -7.4178600225364660e-10 3.3004329370484110e-10 0.0000000000000000e+00  -7.2392660949471848e-10 4.4819348972322270e-10 0.0000000000000000e+00  -6.8200941608014494e-10 5.8649529501624337e-10 0.0000000000000000e+00  -5.9761023778584688e-10 7.3558481338998062e-10 0.0000000000000000e+00  -4.5039519834712789e-10 8.5627126179191320e-10 0.0000000000000000e+00  -2.3758348413090737e-10 8.0238430277972856e-10 0.0000000000000000e+00  -1.0752884096948089e-14 -7.6046395443623145e-13 0.0000000000000000e+00  6.5449260913966832e-14 4.5730961425215218e-13 0.0000000000000000e+00  -1.5790227890311905e-10 -6.1724403329757153e-10 0.0000000000000000e+00  -3.2576885884751845e-10 -7.2133907577334938e-10 0.0000000000000000e+00  -4.6425758900559027e-10 -6.5813519619482110e-10 0.0000000000000000e+00  -5.6261054363596990e-10 -5.4626348034583938e-10 0.0000000000000000e+00  -6.2621803743254717e-10 -4.3068822214133984e-10 0.0000000000000000e+00  -6.6307745116309831e-10 -3.2463164359518007e-10 0.0000000000000000e+00  -6.8270454596966652e-10 -2.3100029161057822e-10 0.0000000000000000e+00  -6.9204801597531837e-10 -1.4818654452670333e-10 0.0000000000000000e+00  -6.9556654073497427e-10 -7.3077459293970562e-11 0.0000000000000000e+00  -6.9565863344009543e-10 -2.1049506159550254e-12 0.0000000000000000e+00  -6.9314087958897296e-10 6.8350116825871061e-11 0.0000000000000000e+00  -6.8748263994146008e-10 1.4182445304031387e-10 0.0000000000000000e+00  -6.7676014614941655e-10 2.2165796947418909e-10 0.0000000000000000e+00  -6.5735609967635596e-10 3.1065907562391086e-10 0.0000000000000000e+00  -6.2349588274555278e-10 4.1023601364238507e-10 0.0000000000000000e+00  -5.6697602603190959e-10 5.1852595562817640e-10 0.0000000000000000e+00  -4.7813840976144185e-10 6.2645555670224586e-10 0.0000000000000000e+00  -3.4988539714363063e-10 7.0531986556437853e-10 0.0000000000000000e+00  -1.8440176382928514e-10 6.4480598594227015e-10 0.0000000000000000e+00  7.4187666643118892e-14 -5.8553192465804365e-13 0.0000000000000000e+00  5.3428403860699675e-14 3.6658795236279869e-13 0.0000000000000000e+00  -1.2338007995637621e-10 -4.9503226902740649e-10 0.0000000000000000e+00  -2.5653531022741782e-10 -5.8398713077984417e-10 0.0000000000000000e+00  -3.7318644020259110e-10 -5.4489647798052217e-10 0.0000000000000000e+00  -4.6438777003474337e-10 -4.6688742374370759e-10 0.0000000000000000e+00  -5.3025518520195867e-10 -3.7934873721194045e-10 0.0000000000000000e+00  -5.7477767030148047e-10 -2.9354266243697527e-10 0.0000000000000000e+00  -6.0308065512917632e-10 -2.1333433446699449e-10 0.0000000000000000e+00  -6.1978127828636986e-10 -1.3916071942970244e-10 0.0000000000000000e+00  -6.2820249876047206e-10 -6.9767125696070026e-11 0.0000000000000000e+00  -6.3031969264413258e-10 -3.1174131665827167e-12 0.0000000000000000e+00  -6.2687434796483694e-10 6.3104246191357225e-11 0.0000000000000000e+00  -6.1745844288335706e-10 1.3118748669649727e-10 0.0000000000000000e+00  -6.0051272051800660e-10 2.0311147298631541e-10 0.0000000000000000e+00  -5.7326025589891624e-10 2.8013499575841777e-10 0.0000000000000000e+00  -5.3170064592142038e-10 3.6212141470767053e-10 0.0000000000000000e+00  -4.7095577493015441e-10 4.4643425379837676e-10 0.0000000000000000e+00  -3.8644143054006485e-10 5.2564148554223721e-10 0.0000000000000000e+00  -2.7615139346036814e-10 5.7833573951781330e-10 0.0000000000000000e+00  -1.4318493127594143e-10 5.1957772811688239e-10 0.0000000000000000e+00  7.7966302624573747e-14 -4.5140464044170122e-13 0.0000000000000000e+00  4.3216423596278935e-14 2.9323263287777326e-13 0.0000000000000000e+00  -1.0020252100043505e-10 -3.9724930026538227e-10 0.0000000000000000e+00  -2.0911049407605034e-10 -4.7241050471094298e-10 0.0000000000000000e+00  -3.0792421870525362e-10 -4.4724199279957171e-10 0.0000000000000000e+00  -3.8984965354926626e-10 -3.9112067906403745e-10 0.0000000000000000e+00  -4.5342139576984209e-10 -3.2469782546395331e-10 0.0000000000000000e+00  -5.0006235441504328e-10 -2.5625159542163789e-10 0.0000000000000000e+00  -5.3237764634840989e-10 -1.8936086196141399e-10 0.0000000000000000e+00  -5.5311122918831182e-10 -1.2522818981057700e-10 0.0000000000000000e+00  -5.6447216882983729e-10 -6.3659287381687383e-11 0.0000000000000000e+00  -5.6788251936013998e-10 -3.6959849901369502e-12 0.0000000000000000e+00  -5.6391132127296371e-10 5.5956330706881016e-11 0.0000000000000000e+00  -5.5227799081434072e-10 1.1659900471983675e-10 0.0000000000000000e+00  -5.3187339198637462e-10 1.7923096629713753e-10 0.0000000000000000e+00  -5.0081729049591045e-10 2.4419060242907852e-10 0.0000000000000000e+00  -4.5663760000589454e-10 3.1070103844575172e-10 0.0000000000000000e+00  -3.9671919150635841e-10 3.7624270388146103e-10 0.0000000000000000e+00  -3.1916690279612223e-10 4.3509309788776685e-10 0.0000000000000000e+00  -2.2402748840245077e-10 4.7125190387646860e-10 0.0000000000000000e+00  -1.1445233228174710e-10 4.1872092917790188e-10 0.0000000000000000e+00  5.9488757563879464e-14 -3.5854365251591839e-13 0.0000000000000000e+00  3.6444639942246911e-14 2.3281395938224617e-13 0.0000000000000000e+00  -8.4048678808349222e-11 -3.1661771521619213e-10 0.0000000000000000e+00  -1.7564020482308476e-10 -3.7897713822411508e-10 0.0000000000000000e+00  -2.6064061597332170e-10 -3.6251944685002688e-10 0.0000000000000000e+00  -3.3378735351475781e-10 -3.2141144392870071e-10 0.0000000000000000e+00  -3.9327732896047919e-10 -2.7092349804088937e-10 0.0000000000000000e+00  -4.3921200633537098e-10 -2.1695766405333401e-10 0.0000000000000000e+00  -4.7271250398131302e-10 -1.6241087183900229e-10 0.0000000000000000e+00  -4.9523678518313736e-10 -1.0861292591154368e-10 0.0000000000000000e+00  -5.0810724032653598e-10 -5.5892652528647672e-11 0.0000000000000000e+00  -5.1223949756379720e-10 -3.9612963442540024e-12 0.0000000000000000e+00  -5.0802236508589408e-10 4.7769804147122328e-11 0.0000000000000000e+00  -4.9528546255920334e-10 9.9910654839650667e-11 0.0000000000000000e+00  -4.7332758408977320e-10 1.5282770517174225e-10 0.0000000000000000e+00  -4.4101501781104930e-10 2.0637187600812946e-10 0.0000000000000000e+00  -3.9699104168348555e-10 2.5959106044482356e-10 0.0000000000000000e+00  -3.4005099607261194e-10 3.1037421469700198e-10 0.0000000000000000e+00  -2.6970345395014159e-10 3.5446177457488271e-10 0.0000000000000000e+00  -1.8683660999656647e-10 3.7992466816621429e-10 0.0000000000000000e+00  -9.4358847583656001e-11 3.3538862543256282e-10 0.0000000000000000e+00  4.6649818059133749e-14 -2.8629869028997317e-13 0.0000000000000000e+00  3.1873868331158076e-14 1.8124272118987496e-13 0.0000000000000000e+00  -7.2551136035941767e-11 -2.4818276971672176e-10 0.0000000000000000e+00  -1.5159155597126600e-10 -2.9885471144549130e-10 0.0000000000000000e+00  -2.2603298305729233e-10 -2.8810350977017985e-10 0.0000000000000000e+00  -2.9169047213845640e-10 -2.5792838140567287e-10 0.0000000000000000e+00  -3.4677058062280303e-10 -2.1979194124837706e-10 0.0000000000000000e+00  -3.9075549350590475e-10 -1.7793330276903951e-10 0.0000000000000000e+00  -4.2390835977000923e-10 -1.3454594695871442e-10 0.0000000000000000e+00  -4.4686470377082384e-10 -9.0824331702871912e-11 0.0000000000000000e+00  -4.6031184242698309e-10 -4.7291778482150529e-11 0.0000000000000000e+00  -4.6477158215229795e-10 -4.0250505486463646e-12 0.0000000000000000e+00  -4.6048194010015214e-10 3.9131172442809437e-11 0.0000000000000000e+00  -4.4735712830985321e-10 8.2356594965858139e-11 0.0000000000000000e+00  -4.2501406029306627e-10 1.2565481992818603e-10 0.0000000000000000e+00  -3.9286801234070610e-10 1.6866276140186644e-10 0.0000000000000000e+00  -3.5031092823841876e-10 2.1047525676105697e-10 0.0000000000000000e+00  -2.9698270091225911e-10 2.4944189491804986e-10 0.0000000000000000e+00  -2.3312094404259499e-10 2.8247459905241232e-10 0.0000000000000000e+00  -1.5993807676640741e-10 3.0077383606636186e-10 0.0000000000000000e+00  -8.0046742670073104e-11 2.6473309064658696e-10 0.0000000000000000e+00  3.8908114477556519e-14 -2.2629980100627399e-13 0.0000000000000000e+00  2.8644082333729722e-14 1.3588481726155667e-13 0.0000000000000000e+00  -6.4363410436963834e-11 -1.8850329949607197e-10 0.0000000000000000e+00  -1.3430522130060364e-10 -2.2854852946484389e-10 0.0000000000000000e+00  -2.0079928088312231e-10 -2.2174599001277380e-10 0.0000000000000000e+00  -2.6041782099321647e-10 -1.9996923202946227e-10 0.0000000000000000e+00  -3.1147435737288305e-10 -1.7177862430410265e-10 0.0000000000000000e+00  -3.5316894938540533e-10 -1.4022149891407636e-10 0.0000000000000000e+00  -3.8528632992421233e-10 -1.0689851995341454e-10 0.0000000000000000e+00  -4.0795529765030657e-10 -7.2776035737350632e-11 0.0000000000000000e+00  -4.2144001621458849e-10 -3.8390291020561173e-11 0.0000000000000000e+00  -4.2598330576807287e-10 -3.9773201888612711e-12 0.0000000000000000e+00  -4.2171115798020199e-10 3.0391065250487995e-11 0.0000000000000000e+00  -4.0859729961602202e-10 6.4664715544736032e-11 0.0000000000000000e+00  -3.8648446313489231e-10 9.8675588266557002e-11 0.0000000000000000e+00  -3.5516180405746721e-10 1.3201170052312966e-10 0.0000000000000000e+00  -3.1449856614942988e-10 1.6391341398380644e-10 0.0000000000000000e+00  -2.6462790161104410e-10 1.9315880603757525e-10 0.0000000000000000e+00  -2.0616206537321643e-10 2.1758502675038822e-10 0.0000000000000000e+00  -1.4041764056159742e-10 2.3088479158901754e-10 0.0000000000000000e+00  -6.9758597647544808e-11 2.0331651251139209e-10 0.0000000000000000e+00  3.3645927660839252e-14 -1.7498210434099703e-13 0.0000000000000000e+00  2.6416771201194140e-14 9.4912915971335409e-14 0.0000000000000000e+00  -5.8689646403901174e-11 -1.3506100378401312e-10 0.0000000000000000e+00  -1.2218160340885039e-10 -1.6538446231981988e-10 0.0000000000000000e+00  -1.8288027580497518e-10 -1.6150448513593254e-10 0.0000000000000000e+00  -2.3788804879408471e-10 -1.4652941390016012e-10 0.0000000000000000e+00  -2.8563814013207835e-10 -1.2668692916879224e-10 0.0000000000000000e+00  -3.2520923666677655e-10 -1.0412694416373910e-10 0.0000000000000000e+00  -3.5612716647082166e-10 -7.9972254149540676e-11 0.0000000000000000e+00  -3.7822005892680628e-10 -5.4942218191848931e-11 0.0000000000000000e+00  -3.9148519535211136e-10 -2.9491379192507257e-11 0.0000000000000000e+00  -3.9598100258317413e-10 -3.8841560450473946e-12 0.0000000000000000e+00  -3.9175662613553918e-10 2.1723226914439438e-11 0.0000000000000000e+00  -3.7882445542652305e-10 4.7191768408650533e-11 0.0000000000000000e+00  -3.5717625646430590e-10 7.2309335759818995e-11 0.0000000000000000e+00  -3.2684110598683411e-10 9.6711889182900315e-11 0.0000000000000000e+00  -2.8798019293951182e-10 1.1982500855347795e-10 0.0000000000000000e+00  -2.4100821228020583e-10 1.4080450763807877e-10 0.0000000000000000e+00  -1.8672680745058181e-10 1.5823210693209487e-10 0.0000000000000000e+00  -1.2647088671535886e-10 1.6787529276052370e-10 0.0000000000000000e+00  -6.2431562292904624e-11 1.4858246811023652e-10 0.0000000000000000e+00  2.9863751303782779e-14 -1.2991278691318305e-13 0.0000000000000000e+00  2.5045455685965791e-14 5.6885433040284886e-14 0.0000000000000000e+00  -5.5054557463429548e-11 -8.5892024796293991e-11 0.0000000000000000e+00  -1.1425115714561130e-10 -1.0721145477000066e-10 0.0000000000000000e+00  -1.7099397601755375e-10 -1.0567124255543348e-10 0.0000000000000000e+00  -2.2275172316227833e-10 -9.6509910591979881e-11 0.0000000000000000e+00  -2.6805925403510968e-10 -8.3982273369549121e-11 0.0000000000000000e+00  -3.0595039377007540e