<?xml version="1.0"?>
<VTKFile type="UnstructuredGrid"  version="0.1"  >
<UnstructuredGrid>
<Piece  NumberOfPoints="651" NumberOfCells="1200">
<Points>
<DataArray  type="Float64"  NumberOfComponents="3"  format="ascii">0 0 0  50000 0 0  100000 0 0  150000 0 0  200000 0 0  250000 0 0  300000 0 0  350000 0 0  400000 0 0  450000 0 0  500000 0 0  550000 0 0  600000 0 0  650000 0 0  700000 0 0  750000 0 0  800000 0 0  850000 0 0  900000 0 0  950000 0 0  1000000 0 0  0 50000 0  50000 50000 0  100000 50000 0  150000 50000 0  200000 50000 0  250000 50000 0  300000 50000 0  350000 50000 0  400000 50000 0  450000 50000 0  500000 50000 0  550000 50000 0  600000 50000 0  650000 50000 0  700000 50000 0  750000 50000 0  800000 50000 0  850000 50000 0  900000 50000 0  950000 50000 0  1000000 50000 0  0 100000 0  50000 100000 0  100000 100000 0  150000 100000 0  200000 100000 0  250000 100000 0  300000 100000 0  350000 100000 0  400000 100000 0  450000 100000 0  500000 100000 0  550000 100000 0  600000 100000 0  650000 100000 0  700000 100000 0  750000 100000 0  800000 100000 0  850000 100000 0  900000 100000 0  950000 100000 0  1000000 100000 0  0 150000 0  50000 150000 0  100000 150000 0  150000 150000 0  200000 150000 0  250000 150000 0  300000 150000 0  350000 150000 0  400000 150000 0  450000 150000 0  500000 150000 0  550000 150000 0  600000 150000 0  650000 150000 0  700000 150000 0  750000 150000 0  800000 150000 0  850000 150000 0  900000 150000 0  950000 150000 0  1000000 150000 0  0 200000 0  50000 200000 0  100000 200000 0  150000 200000 0  200000 200000 0  250000 200000 0  300000 200000 0  350000 200000 0  400000 200000 0  450000 200000 0  500000 200000 0  550000 200000 0  600000 200000 0  650000 200000 0  700000 200000 0  750000 200000 0  800000 200000 0  850000 200000 0  900000 200000 0  950000 200000 0  1000000 200000 0  0 250000 0  50000 250000 0  100000 250000 0  150000 250000 0  200000 250000 0  250000 250000 0  300000 250000 0  350000 250000 0  400000 250000 0  450000 250000 0  500000 250000 0  550000 250000 0  600000 250000 0  650000 250000 0  700000 250000 0  750000 250000 0  800000 250000 0  850000 250000 0  900000 250000 0  950000 250000 0  1000000 250000 0  0 300000 0  50000 300000 0  100000 300000 0  150000 300000 0  200000 300000 0  250000 300000 0  300000 300000 0  350000 300000 0  400000 300000 0  450000 300000 0  500000 300000 0  550000 300000 0  600000 300000 0  650000 300000 0  700000 300000 0  750000 300000 0  800000 300000 0  850000 300000 0  900000 300000 0  950000 300000 0  1000000 300000 0  0 350000 0  50000 350000 0  100000 350000 0  150000 350000 0  200000 350000 0  250000 350000 0  300000 350000 0  350000 350000 0  400000 350000 0  450000 350000 0  500000 350000 0  550000 350000 0  600000 350000 0  650000 350000 0  700000 350000 0  750000 350000 0  800000 350000 0  850000 350000 0  900000 350000 0  950000 350000 0  1000000 350000 0  0 400000 0  50000 400000 0  100000 400000 0  150000 400000 0  200000 400000 0  250000 400000 0  300000 400000 0  350000 400000 0  400000 400000 0  450000 400000 0  500000 400000 0  550000 400000 0  600000 400000 0  650000 400000 0  700000 400000 0  750000 400000 0  800000 400000 0  850000 400000 0  900000 400000 0  950000 400000 0  1000000 400000 0  0 450000 0  50000 450000 0  100000 450000 0  150000 450000 0  200000 450000 0  250000 450000 0  300000 450000 0  350000 450000 0  400000 450000 0  450000 450000 0  500000 450000 0  550000 450000 0  600000 450000 0  650000 450000 0  700000 450000 0  750000 450000 0  800000 450000 0  850000 450000 0  900000 450000 0  950000 450000 0  1000000 450000 0  0 500000 0  50000 500000 0  100000 500000 0  150000 500000 0  200000 500000 0  250000 500000 0  300000 500000 0  350000 500000 0  400000 500000 0  450000 500000 0  500000 500000 0  550000 500000 0  600000 500000 0  650000 500000 0  700000 500000 0  750000 500000 0  800000 500000 0  850000 500000 0  900000 500000 0  950000 500000 0  1000000 500000 0  0 550000 0  50000 550000 0  100000 550000 0  150000 550000 0  200000 550000 0  250000 550000 0  300000 550000 0  350000 550000 0  400000 550000 0  450000 550000 0  500000 550000 0  550000 550000 0  600000 550000 0  650000 550000 0  700000 550000 0  750000 550000 0  800000 550000 0  850000 550000 0  900000 550000 0  950000 550000 0  1000000 550000 0  0 600000 0  50000 600000 0  100000 600000 0  150000 600000 0  200000 600000 0  250000 600000 0  300000 600000 0  350000 600000 0  400000 600000 0  450000 600000 0  500000 600000 0  550000 600000 0  600000 600000 0  650000 600000 0  700000 600000 0  750000 600000 0  800000 600000 0  850000 600000 0  900000 600000 0  950000 600000 0  1000000 600000 0  0 650000 0  50000 650000 0  100000 650000 0  150000 650000 0  200000 650000 0  250000 650000 0  300000 650000 0  350000 650000 0  400000 650000 0  450000 650000 0  500000 650000 0  550000 650000 0  600000 650000 0  650000 650000 0  700000 650000 0  750000 650000 0  800000 650000 0  850000 650000 0  900000 650000 0  950000 650000 0  1000000 650000 0  0 700000 0  50000 700000 0  100000 700000 0  150000 700000 0  200000 700000 0  250000 700000 0  300000 700000 0  350000 700000 0  400000 700000 0  450000 700000 0  500000 700000 0  550000 700000 0  600000 700000 0  650000 700000 0  700000 700000 0  750000 700000 0  800000 700000 0  850000 700000 0  900000 700000 0  950000 700000 0  1000000 700000 0  0 750000 0  50000 750000 0  100000 750000 0  150000 750000 0  200000 750000 0  250000 750000 0  300000 750000 0  350000 750000 0  400000 750000 0  450000 750000 0  500000 750000 0  550000 750000 0  600000 750000 0  650000 750000 0  700000 750000 0  750000 750000 0  800000 750000 0  850000 750000 0  900000 750000 0  950000 750000 0  1000000 750000 0  0 800000 0  50000 800000 0  100000 800000 0  150000 800000 0  200000 800000 0  250000 800000 0  300000 800000 0  350000 800000 0  400000 800000 0  450000 800000 0  500000 800000 0  550000 800000 0  600000 800000 0  650000 800000 0  700000 800000 0  750000 800000 0  800000 800000 0  850000 800000 0  900000 800000 0  950000 800000 0  1000000 800000 0  0 850000 0  50000 850000 0  100000 850000 0  150000 850000 0  200000 850000 0  250000 850000 0  300000 850000 0  350000 850000 0  400000 850000 0  450000 850000 0  500000 850000 0  550000 850000 0  600000 850000 0  650000 850000 0  700000 850000 0  750000 850000 0  800000 850000 0  850000 850000 0  900000 850000 0  950000 850000 0  1000000 850000 0  0 900000 0  50000 900000 0  100000 900000 0  150000 900000 0  200000 900000 0  250000 900000 0  300000 900000 0  350000 900000 0  400000 900000 0  450000 900000 0  500000 900000 0  550000 900000 0  600000 900000 0  650000 900000 0  700000 900000 0  750000 900000 0  800000 900000 0  850000 900000 0  900000 900000 0  950000 900000 0  1000000 900000 0  0 950000 0  50000 950000 0  100000 950000 0  150000 950000 0  200000 950000 0  250000 950000 0  300000 950000 0  350000 950000 0  400000 950000 0  450000 950000 0  500000 950000 0  550000 950000 0  600000 950000 0  650000 950000 0  700000 950000 0  750000 950000 0  800000 950000 0  850000 950000 0  900000 950000 0  950000 950000 0  1000000 950000 0  0 1000000 0  50000 1000000 0  100000 1000000 0  150000 1000000 0  200000 1000000 0  250000 1000000 0  300000 1000000 0  350000 1000000 0  400000 1000000 0  450000 1000000 0  500000 1000000 0  550000 1000000 0  600000 1000000 0  650000 1000000 0  700000 1000000 0  750000 1000000 0  800000 1000000 0  850000 1000000 0  900000 1000000 0  950000 1000000 0  1000000 1000000 0  0 1050000 0  50000 1050000 0  100000 1050000 0  150000 1050000 0  200000 1050000 0  250000 1050000 0  300000 1050000 0  350000 1050000 0  400000 1050000 0  450000 1050000 0  500000 1050000 0  550000 1050000 0  600000 1050000 0  650000 1050000 0  700000 1050000 0  750000 1050000 0  800000 1050000 0  850000 1050000 0  900000 1050000 0  950000 1050000 0  1000000 1050000 0  0 1100000 0  50000 1100000 0  100000 1100000 0  150000 1100000 0  200000 1100000 0  250000 1100000 0  300000 1100000 0  350000 1100000 0  400000 1100000 0  450000 1100000 0  500000 1100000 0  550000 1100000 0  600000 1100000 0  650000 1100000 0  700000 1100000 0  750000 1100000 0  800000 1100000 0  850000 1100000 0  900000 1100000 0  950000 1100000 0  1000000 1100000 0  0 1150000 0  50000 1150000 0  100000 1150000 0  150000 1150000 0  200000 1150000 0  250000 1150000 0  300000 1150000 0  350000 1150000 0  400000 1150000 0  450000 1150000 0  500000 1150000 0  550000 1150000 0  600000 1150000 0  650000 1150000 0  700000 1150000 0  750000 1150000 0  800000 1150000 0  850000 1150000 0  900000 1150000 0  950000 1150000 0  1000000 1150000 0  0 1200000 0  50000 1200000 0  100000 1200000 0  150000 1200000 0  200000 1200000 0  250000 1200000 0  300000 1200000 0  350000 1200000 0  400000 1200000 0  450000 1200000 0  500000 1200000 0  550000 1200000 0  600000 1200000 0  650000 1200000 0  700000 1200000 0  750000 1200000 0  800000 1200000 0  850000 1200000 0  900000 1200000 0  950000 1200000 0  1000000 1200000 0  0 1250000 0  50000 1250000 0  100000 1250000 0  150000 1250000 0  200000 1250000 0  250000 1250000 0  300000 1250000 0  350000 1250000 0  400000 1250000 0  450000 1250000 0  500000 1250000 0  550000 1250000 0  600000 1250000 0  650000 1250000 0  700000 1250000 0  750000 1250000 0  800000 1250000 0  850000 1250000 0  900000 1250000 0  950000 1250000 0  1000000 1250000 0  0 1300000 0  50000 1300000 0  100000 1300000 0  150000 1300000 0  200000 1300000 0  250000 1300000 0  300000 1300000 0  350000 1300000 0  400000 1300000 0  450000 1300000 0  500000 1300000 0  550000 1300000 0  600000 1300000 0  650000 1300000 0  700000 1300000 0  750000 1300000 0  800000 1300000 0  850000 1300000 0  900000 1300000 0  950000 1300000 0  1000000 1300000 0  0 1350000 0  50000 1350000 0  100000 1350000 0  150000 1350000 0  200000 1350000 0  250000 1350000 0  300000 1350000 0  350000 1350000 0  400000 1350000 0  450000 1350000 0  500000 1350000 0  550000 1350000 0  600000 1350000 0  650000 1350000 0  700000 135
[...]
<PointData  Vectors="f_5995"> 
<DataArray  type="Float64"  Name="f_5995"  NumberOfComponents="3" format="ascii">1.8212848222845042e-12 3.2671483612852907e-12 0.0000000000000000e+00  8.0002139644245999e-08 2.3080418230844615e-12 0.0000000000000000e+00  8.0001624439495978e-08 9.0362043299721587e-13 0.0000000000000000e+00  8.0001079583723529e-08 2.4034339390923666e-13 0.0000000000000000e+00  8.0000886045349588e-08 8.8878791412500383e-14 0.0000000000000000e+00  8.0000770239777864e-08 5.9488429088991821e-14 0.0000000000000000e+00  8.0000689689573440e-08 4.2821027277695982e-14 0.0000000000000000e+00  8.0000636788996969e-08 2.8584129583361975e-14 0.0000000000000000e+00  8.0000604727066820e-08 1.7063578898467983e-14 0.0000000000000000e+00  8.0000588892773352e-08 7.3096346560707773e-15 0.0000000000000000e+00  8.0000587092552405e-08 -1.9137629969424883e-15 0.0000000000000000e+00  8.0000599025866431e-08 -1.1774667109337854e-14 0.0000000000000000e+00  8.0000626133951414e-08 -2.3643583446282349e-14 0.0000000000000000e+00  8.0000672082290539e-08 -3.9485993210647659e-14 0.0000000000000000e+00  8.0000744785938050e-08 -6.0720109535137860e-14 0.0000000000000000e+00  8.0000859627936461e-08 -7.8841667605750605e-14 0.0000000000000000e+00  8.0001030095585490e-08 -7.0359767683582760e-14 0.0000000000000000e+00  8.0001302705457862e-08 -2.0765709952947117e-13 0.0000000000000000e+00  8.0002282857738949e-08 -1.5206034103057362e-12 0.0000000000000000e+00  8.0001769512509659e-08 -1.9536957447000616e-12 0.0000000000000000e+00  1.1164853262020087e-12 -1.9007832174313650e-12 0.0000000000000000e+00  1.2992769329352809e-12 2.5859930407335840e-12 0.0000000000000000e+00  1.1793163108278654e-08 -1.1436094626279173e-09 0.0000000000000000e+00  1.3683301072322734e-08 -8.9257779708429376e-10 0.0000000000000000e+00  1.5313990035508515e-08 -3.8822324868668837e-10 0.0000000000000000e+00  1.5880769546573084e-08 -2.2460147577398903e-10 0.0000000000000000e+00  1.6091991023527213e-08 -1.3237046779042853e-10 0.0000000000000000e+00  1.6209970281472650e-08 -7.2680158794433749e-11 0.0000000000000000e+00  1.6286259289113197e-08 -3.3061447913622410e-11 0.0000000000000000e+00  1.6334034424643722e-08 -4.5303269164233043e-12 0.0000000000000000e+00  1.6359951072933438e-08 1.8413240732785744e-11 0.0000000000000000e+00  1.6367541545248158e-08 3.9254668384493349e-11 0.0000000000000000e+00  1.6357946205830091e-08 6.0736678846537928e-11 0.0000000000000000e+00  1.6330230552049589e-08 8.5733820212570159e-11 0.0000000000000000e+00  1.6281232854740997e-08 1.1815110827453206e-10 0.0000000000000000e+00  1.6205081198873878e-08 1.6417743907450219e-10 0.0000000000000000e+00  1.6093773979673902e-08 2.3351438242421794e-10 0.0000000000000000e+00  1.5940099136442020e-08 3.4166214890677944e-10 0.0000000000000000e+00  1.5693008871179907e-08 5.6211831142446957e-10 0.0000000000000000e+00  1.4837799334659287e-08 1.4062231238037516e-09 0.0000000000000000e+00  1.1421442226077609e-08 3.9720430657817115e-09 0.0000000000000000e+00  1.5323726532656648e-12 -2.1806421164922954e-12 0.0000000000000000e+00  4.3778324197150805e-13 1.3098902111896499e-12 0.0000000000000000e+00  2.9019667695021324e-10 -2.6181727616563665e-09 0.0000000000000000e+00  1.8232142950196186e-09 -1.2921496186037442e-09 0.0000000000000000e+00  1.5469190925394405e-09 -8.1026868714271281e-10 0.0000000000000000e+00  1.7789477136655085e-09 -5.1333450881778019e-10 0.0000000000000000e+00  1.9889382631565664e-09 -3.2547896010214317e-10 0.0000000000000000e+00  2.1176073039739805e-09 -2.0758326882886330e-10 0.0000000000000000e+00  2.1990190263459658e-09 -1.2869074650398835e-10 0.0000000000000000e+00  2.2508502330506710e-09 -7.1241997432043659e-11 0.0000000000000000e+00  2.2802980363289625e-09 -2.5082103998515407e-11 0.0000000000000000e+00  2.2907595607064029e-09 1.6352838791277394e-11 0.0000000000000000e+00  2.2835807834006535e-09 5.8183649132120221e-11 0.0000000000000000e+00  2.2584954658202794e-09 1.0552456621089351e-10 0.0000000000000000e+00  2.2137963772698382e-09 1.6485033384646985e-10 0.0000000000000000e+00  2.1466049794749267e-09 2.4590236850801325e-10 0.0000000000000000e+00  2.0536373326585691e-09 3.6545520911514811e-10 0.0000000000000000e+00  1.9303405810514610e-09 5.5861678570407135e-10 0.0000000000000000e+00  1.7559376076333508e-09 9.1242603456548165e-10 0.0000000000000000e+00  1.4893659768412583e-09 1.5625197417320271e-09 0.0000000000000000e+00  1.3532168369905670e-09 2.0558270849800836e-09 0.0000000000000000e+00  1.1925074272973710e-12 -2.2905488490831914e-12 0.0000000000000000e+00  1.6154918812333541e-13 8.9659175342042750e-13 0.0000000000000000e+00  -3.7384743609488366e-10 -1.5089009202745466e-09 0.0000000000000000e+00  -4.5528717951261845e-10 -1.4167215763868106e-09 0.0000000000000000e+00  -5.5334092551622714e-10 -9.8972602781814978e-10 0.0000000000000000e+00  -5.6704468283845766e-10 -6.5686597790493070e-10 0.0000000000000000e+00  -5.1296145522324191e-10 -4.4269307563513936e-10 0.0000000000000000e+00  -4.4512152343507285e-10 -2.9685994553184669e-10 0.0000000000000000e+00  -3.9048789081201490e-10 -1.9343891559550917e-10 0.0000000000000000e+00  -3.5249272397687961e-10 -1.1538231861002660e-10 0.0000000000000000e+00  -3.2963559751085209e-10 -5.1446044072540636e-11 0.0000000000000000e+00  -3.2053643700745211e-10 6.1844997879944577e-12 0.0000000000000000e+00  -3.2441256300041285e-10 6.3779634655959028e-11 0.0000000000000000e+00  -3.4094265829847493e-10 1.2746456729772295e-10 0.0000000000000000e+00  -3.6994582022783970e-10 2.0452237731996947e-10 0.0000000000000000e+00  -4.1065912894175285e-10 3.0504613332050597e-10 0.0000000000000000e+00  -4.6023508131934135e-10 4.4453832703208455e-10 0.0000000000000000e+00  -5.1050533969757248e-10 6.4730725131765453e-10 0.0000000000000000e+00  -5.3643285599815489e-10 9.4010391386403996e-10 0.0000000000000000e+00  -4.5134077683788867e-10 1.2784478482985296e-09 0.0000000000000000e+00  -8.5366459007944336e-11 1.2952602835837945e-09 0.0000000000000000e+00  1.1469753343165877e-13 -1.2116209780632043e-12 0.0000000000000000e+00  9.8980182571194293e-14 6.9786443569454458e-13 0.0000000000000000e+00  -2.9364596699057445e-10 -1.0212205602134741e-09 0.0000000000000000e+00  -5.6718061036693787e-10 -1.1540754299403219e-09 0.0000000000000000e+00  -7.1060397178069281e-10 -9.1709499842750394e-10 0.0000000000000000e+00  -7.9750599988296153e-10 -6.7891756588468960e-10 0.0000000000000000e+00  -8.1220063843940570e-10 -4.8485618590160038e-10 0.0000000000000000e+00  -7.9930368419473502e-10 -3.3912650384913223e-10 0.0000000000000000e+00  -7.7854272981984342e-10 -2.2831947642603715e-10 0.0000000000000000e+00  -7.5963176899515983e-10 -1.4032501609034820e-10 0.0000000000000000e+00  -7.4656243684316328e-10 -6.5967036075552662e-11 0.0000000000000000e+00  -7.4053681425109909e-10 1.9215116645480569e-12 0.0000000000000000e+00  -7.4162391005844208e-10 6.9443917697168035e-11 0.0000000000000000e+00  -7.4922745709825420e-10 1.4251767492492431e-10 0.0000000000000000e+00  -7.6187142624467781e-10 2.2769576103703161e-10 0.0000000000000000e+00  -7.7637690187235982e-10 3.3293741381532170e-10 0.0000000000000000e+00  -7.8608068512583825e-10 4.6797817981093312e-10 0.0000000000000000e+00  -7.7704107011841519e-10 6.4229654508675497e-10 0.0000000000000000e+00  -7.2023348228714808e-10 8.5344670192534949e-10 0.0000000000000000e+00  -5.6436735001630484e-10 1.0484598013126040e-09 0.0000000000000000e+00  -2.7505925171110287e-10 1.0145833028822476e-09 0.0000000000000000e+00  5.4594163500592986e-14 -8.9493066683709979e-13 0.0000000000000000e+00  7.8470158552727310e-14 5.5514040455759274e-13 0.0000000000000000e+00  -2.1253249328085902e-10 -7.8687976819926388e-10 0.0000000000000000e+00  -4.3298618835705356e-10 -9.0787935679852143e-10 0.0000000000000000e+00  -5.9211329558997358e-10 -7.9172690248608777e-10 0.0000000000000000e+00  -6.9128859692791590e-10 -6.2636672094000407e-10 0.0000000000000000e+00  -7.4245418196602527e-10 -4.7339152950364102e-10 0.0000000000000000e+00  -7.6221557365051885e-10 -3.4507211888708583e-10 0.0000000000000000e+00  -7.6620348650829614e-10 -2.3925994486471918e-10 0.0000000000000000e+00  -7.6387077232195573e-10 -1.5045903510062668e-10 0.0000000000000000e+00  -7.6019266341507172e-10 -7.2698566395947517e-11 0.0000000000000000e+00  -7.5750828789783756e-10 -4.9577653276237096e-13 0.0000000000000000e+00  -7.5647810148974160e-10 7.1191888308870139e-11 0.0000000000000000e+00  -7.5648072761780504e-10 1.4725898180473131e-10 0.0000000000000000e+00  -7.5550912953611542e-10 2.3272143382010252e-10 0.0000000000000000e+00  -7.4956261497229122e-10 3.3274046525999608e-10 0.0000000000000000e+00  -7.3145069511358698e-10 4.5190167999655386e-10 0.0000000000000000e+00  -6.8899387419670548e-10 5.9153584800544299e-10 0.0000000000000000e+00  -6.0373188682784071e-10 7.4251415265606550e-10 0.0000000000000000e+00  -4.5545933333731727e-10 8.6592045338460064e-10 0.0000000000000000e+00  -2.4128458197367776e-10 8.1438387882192291e-10 0.0000000000000000e+00  9.5376339621561243e-14 -6.9058093190753427e-13 0.0000000000000000e+00  6.2892353603197351e-14 4.4382268385786935e-13 0.0000000000000000e+00  -1.5880657573810382e-10 -6.2595135064325453e-10 0.0000000000000000e+00  -3.2850000254613503e-10 -7.2839138656472532e-10 0.0000000000000000e+00  -4.6827314218362995e-10 -6.6331319657783412e-10 0.0000000000000000e+00  -5.6747258676762535e-10 -5.5036690336309156e-10 0.0000000000000000e+00  -6.3151490792139188e-10 -4.3387794702299897e-10 0.0000000000000000e+00  -6.6865799243955538e-10 -3.2703691833428528e-10 0.0000000000000000e+00  -6.8845258314231734e-10 -2.3271273886379729e-10 0.0000000000000000e+00  -6.9790007071446034e-10 -1.4927943198919354e-10 0.0000000000000000e+00  -7.0148215868068016e-10 -7.3599833319956224e-11 0.0000000000000000e+00  -7.0160851181080920e-10 -2.0790488818966683e-12 0.0000000000000000e+00  -6.9909757542207588e-10 6.8929892250407957e-11 0.0000000000000000e+00  -6.9340893685402763e-10 1.4299284323810511e-10 0.0000000000000000e+00  -6.8259486459156766e-10 2.2348066323773870e-10 0.0000000000000000e+00  -6.6299721342718140e-10 3.1323544027967039e-10 0.0000000000000000e+00  -6.2878618809431012e-10 4.1370406166996534e-10 0.0000000000000000e+00  -5.7170599513710563e-10 5.2307239091043368e-10 0.0000000000000000e+00  -4.8208165360743853e-10 6.3233618370319036e-10 0.0000000000000000e+00  -3.5285326288515146e-10 7.1287937533770768e-10 0.0000000000000000e+00  -1.8621958517937798e-10 6.5373395270949761e-10 0.0000000000000000e+00  8.6982890058803594e-14 -5.4017985867291122e-13 0.0000000000000000e+00  5.0698194009967994e-14 3.5631961418476023e-13 0.0000000000000000e+00  -1.2407243998088102e-10 -5.0189507283335546e-10 0.0000000000000000e+00  -2.5860395609607796e-10 -5.8982219683929833e-10 0.0000000000000000e+00  -3.7626132427229412e-10 -5.4939512271487311e-10 0.0000000000000000e+00  -4.6818576360898544e-10 -4.7047481397607373e-10 0.0000000000000000e+00  -5.3454529040234891e-10 -3.8220399099983784e-10 0.0000000000000000e+00  -5.7940244410368799e-10 -2.9573631792307252e-10 0.0000000000000000e+00  -6.0793106122973411e-10 -2.1491984044491536e-10 0.0000000000000000e+00  -6.2477795961504069e-10 -1.4018194500510655e-10 0.0000000000000000e+00  -6.3328485281502684e-10 -7.0254380380210956e-11 0.0000000000000000e+00  -6.3543721425903904e-10 -3.0841515274621112e-12 0.0000000000000000e+00  -6.3197731287683629e-10 6.3663821299076836e-11 0.0000000000000000e+00  -6.2248880588204744e-10 1.3229941372163091e-10 0.0000000000000000e+00  -6.0539441303264215e-10 2.0482184992191319e-10 0.0000000000000000e+00  -5.7788998483002203e-10 2.8250818182494448e-10 0.0000000000000000e+00  -5.3594269033232126e-10 3.6523568826213355e-10 0.0000000000000000e+00  -4.7464607985925059e-10 4.5037600632163345e-10 0.0000000000000000e+00  -3.8940564124802133e-10 5.3051503714993170e-10 0.0000000000000000e+00  -2.7824663452215079e-10 5.8432940662802992e-10 0.0000000000000000e+00  -1.4435822931004762e-10 5.2651179299079629e-10 0.0000000000000000e+00  6.8622579739784642e-14 -4.3043058065845867e-13 0.0000000000000000e+00  4.1911049497990600e-14 2.8571332917897235e-13 0.0000000000000000e+00  -1.0076485332717177e-10 -4.0271495972111039e-10 0.0000000000000000e+00  -2.1077058692432654e-10 -4.7714387656752739e-10 0.0000000000000000e+00  -3.1042797305570241e-10 -4.5102155043376275e-10 0.0000000000000000e+00  -3.9299641265780221e-10 -3.9418566708100789e-10 0.0000000000000000e+00  -4.5705381661983825e-10 -3.2717278251351609e-10 0.0000000000000000e+00  -5.0404978605467803e-10 -2.5817837507119154e-10 0.0000000000000000e+00  -5.3661826841170218e-10 -1.9076751958868032e-10 0.0000000000000000e+00  -5.5752108471655512e-10 -1.2613770047923930e-10 0.0000000000000000e+00  -5.6898084122374884e-10 -6.4088427997087386e-11 0.0000000000000000e+00  -5.7242648249410370e-10 -3.6516878382785019e-12 0.0000000000000000e+00  -5.6842759246363367e-10 5.6479124491806586e-11 0.0000000000000000e+00  -5.5669761038448891e-10 1.1761781350894756e-10 0.0000000000000000e+00  -5.3611522148829842e-10 1.8077432366898403e-10 0.0000000000000000e+00  -5.0478319957597416e-10 2.4629407945995147e-10 0.0000000000000000e+00  -4.6021084451603342e-10 3.1340022379964951e-10 0.0000000000000000e+00  -3.9976827333712949e-10 3.7956664436067335e-10 0.0000000000000000e+00  -3.2155907817643031e-10 4.3908052522826748e-10 0.0000000000000000e+00  -2.2566700502526081e-10 4.7603399960210192e-10 0.0000000000000000e+00  -1.1534051390812130e-10 4.2419882978570630e-10 0.0000000000000000e+00  5.4487279252297156e-14 -3.4545050358196427e-13 0.0000000000000000e+00  3.5643865500187359e-14 2.2695901397245968e-13 0.0000000000000000e+00  -8.4522775160360001e-11 -3.2096259652048957e-10 0.0000000000000000e+00  -1.7701949656626540e-10 -3.8277736660862516e-10 0.0000000000000000e+00  -2.6274326297765071e-10 -3.6561294237147575e-10 0.0000000000000000e+00  -3.3646942778702507e-10 -3.2396312753104022e-10 0.0000000000000000e+00  -3.9641940541887801e-10 -2.7300645221299794e-10 0.0000000000000000e+00  -4.4270840931913385e-10 -2.1859509203976176e-10 0.0000000000000000e+00  -4.7647023501465425e-10 -1.6361401506897406e-10 0.0000000000000000e+00  -4.9917367837079778e-10 -1.0939169056706867e-10 0.0000000000000000e+00  -5.1214900964275090e-10 -5.6254625846279587e-11 0.0000000000000000e+00  -5.1631622435720846e-10 -3.9091672978653296e-12 0.0000000000000000e+00  -5.1206439653171900e-10 4.8239883846169497e-11 0.0000000000000000e+00  -4.9921924833914295e-10 1.0080911445532126e-10 0.0000000000000000e+00  -4.7707205298923999e-10 1.5416964350356611e-10 0.0000000000000000e+00  -4.4447927849089934e-10 2.0817284807673672e-10 0.0000000000000000e+00  -4.0007444627082311e-10 2.6186086063037151e-10 0.0000000000000000e+00  -3.4264695873651176e-10 3.1311331540604549e-10 0.0000000000000000e+00  -2.7171077235025334e-10 3.5768109842999873e-10 0.0000000000000000e+00  -1.8819073208338387e-10 3.8372440053173434e-10 0.0000000000000000e+00  -9.5076912696519703e-11 3.3971568087332047e-10 0.0000000000000000e+00  4.4639889686422067e-14 -2.7657852136866664e-13 0.0000000000000000e+00  3.1139172893972245e-14 1.7666555798510057e-13 0.0000000000000000e+00  -7.2965285574156926e-11 -2.5159068923043560e-10 0.0000000000000000e+00  -1.5277044574027645e-10 -3.0185533141762664e-10 0.0000000000000000e+00  -2.2784277805155406e-10 -2.9057202616214728e-10 0.0000000000000000e+00  -2.9402430884321315e-10 -2.5998864320650634e-10 0.0000000000000000e+00  -3.4953496533237737e-10 -2.2148840241469356e-10 0.0000000000000000e+00  -3.9386233944033332e-10 -1.7927558411724265e-10 0.0000000000000000e+00  -4.2727433628734857e-10 -1.3553585053885016e-10 0.0000000000000000e+00  -4.5041147589353467e-10 -9.1463960879597263e-11 0.0000000000000000e+00  -4.6396505942632033e-10 -4.7583191994202769e-11 0.0000000000000000e+00  -4.6845917663301087e-10 -3.9685428533462332e-12 0.0000000000000000e+00  -4.6413184950623986e-10 3.9538184892749338e-11 0.0000000000000000e+00  -4.5089497572429627e-10 8.3119353124917353e-11 0.0000000000000000e+00  -4.2836130380300191e-10 1.2677940367400064e-10 0.0000000000000000e+00  -3.9594115935376290e-10 1.7015257608950264e-10 0.0000000000000000e+00  -3.5302246697581261e-10 2.1232654221272251e-10 0.0000000000000000e+00  -2.9924469829438050e-10 2.5164265823589500e-10 0.0000000000000000e+00  -2.3485417770379318e-10 2.8502374248175817e-10 0.0000000000000000e+00  -1.6109584586415620e-10 3.0374860123008098e-10 0.0000000000000000e+00  -8.0647011432491836e-11 2.6810837583491306e-10 0.0000000000000000e+00  3.7644665166296837e-14 -2.1901493303146069e-13 0.0000000000000000e+00  2.7929643862396078e-14 1.3245358546344824e-13 0.0000000000000000e+00  -6.4738016284962757e-11 -1.9110349699299780e-10 0.0000000000000000e+00  -1.3533997058366936e-10 -2.3084880976693096e-10 0.0000000000000000e+00  -2.0239404820043971e-10 -2.2364809106173959e-10 0.0000000000000000e+00  -2.6249056429407721e-10 -2.0156693333021778e-10 0.0000000000000000e+00  -3.1394954120715849e-10 -1.7310155234029336e-10 0.0000000000000000e+00  -3.5597126220934000e-10 -1.4127192219776873e-10 0.0000000000000000e+00  -3.8834074518330998e-10 -1.0767367509532916e-10 0.0000000000000000e+00  -4.1118791171418318e-10 -7.3274099693082632e-11 0.0000000000000000e+00  -4.2477822680060945e-10 -3.8610513448096619e-11 0.0000000000000000e+00  -4.2935527521660774e-10 -3.9189133524048215e-12 0.0000000000000000e+00  -4.2504485230019558e-10 3.0729591632253275e-11 0.0000000000000000e+00  -4.1181946628891038e-10 6.5285241186817812e-11 0.0000000000000000e+00  -3.8951997205408161e-10 9.9578904569205243e-11 0.0000000000000000e+00  -3.5793377726128943e-10 1.3319491894851629e-10 0.0000000000000000e+00  -3.1692972221466830e-10 1.6536701030235983e-10 0.0000000000000000e+00  -2.6664373889966443e-10 1.9486679934022897e-10 0.0000000000000000e+00  -2.0769791638520607e-10 2.1954104254489473e-10 0.0000000000000000e+00  -1.4143624574866579e-10 2.3314645795833458e-10 0.0000000000000000e+00  -7.0272958045790775e-11 2.0587747337385976e-10 0.0000000000000000e+00  3.2593706971935823e-14 -1.6958553986464385e-13 0.0000000000000000e+00  2.5736215097486486e-14 9.2542820176899849e-14 0.0000000000000000e+00  -5.9040211278925299e-11 -1.3694497014173585e-10 0.0000000000000000e+00  -1.2311430562894280e-10 -1.6705712924814424e-10 0.0000000000000000e+00  -1.8431996018303074e-10 -1.6288775676209591e-10 0.0000000000000000e+00  -2.3976984687778170e-10 -1.4769258840907995e-10 0.0000000000000000e+00  -2.8789873179876192e-10 -1.2765141488559626e-10 0.0000000000000000e+00  -3.2778244137413248e-10 -1.0489261006172879e-10 0.0000000000000000e+00  -3.5894439046290916e-10 -8.0535138840448950e-11 0.0000000000000000e+00  -3.8121146242777862e-10 -5.5299320631240519e-11 0.0000000000000000e+00  -3.9458046117206512e-10 -2.9641009235400159e-11 0.0000000000000000e+00  -3.9910957178601160e-10 -3.8253128044418856e-12 0.0000000000000000e+00  -3.9484759929897611e-10 2.1991205066832785e-11 0.0000000000000000e+00  -3.8180643787876533e-10 4.7668890424402656e-11 0.0000000000000000e+00  -3.5997746289372256e-10 7.2993869301028449e-11 0.0000000000000000e+00  -3.2939002557770966e-10 9.7598586573496741e-11 0.0000000000000000e+00  -2.9020708847175279e-10 1.2090321772022118e-10 0.0000000000000000e+00  -2.4284783448659739e-10 1.4205859678569662e-10 0.0000000000000000e+00  -1.8812370189974392e-10 1.5965333421878429e-10 0.0000000000000000e+00  -1.2739203323718224e-10 1.6950330537268302e-10 0.0000000000000000e+00  -6.2882285310747653e-11 1.5042460913719455e-10 0.0000000000000000e+00  2.8960659110075238e-14 -1.2600418172463409e-13 0.0000000000000000e+00  2.4391997747007783e-14 5.5515291642024541e-14 0.0000000000000000e+00  -5.5393752893771537e-11 -8.7122526468729704e-11 0.0000000000000000e+00  -1.1511535197790929e-10 -1.0830766195831437e-10 0.0000000000000000e+00  -1.7232748267972269e-10 -1.0657088977043776e-10 0.0000000000000000e+00  -2.2450184119405577e-10 -9.7261215118921966e-11 0.0000000000000000e+00  -2.7017075940577199e-10 -8.4601830092252436e-11 0.0000000000000000e+00  -3.0836323036667435e