<?xml version="1.0"?>
<VTKFile type="UnstructuredGrid"  version="0.1"  >
<UnstructuredGrid>
<Piece  NumberOfPoints="651" NumberOfCells="1200">
<Points>
<DataArray  type="Float64"  NumberOfComponents="3"  format="ascii">0 0 0  50000 0 0  100000 0 0  150000 0 0  200000 0 0  250000 0 0  300000 0 0  350000 0 0  400000 0 0  450000 0 0  500000 0 0  550000 0 0  600000 0 0  650000 0 0  700000 0 0  750000 0 0  800000 0 0  850000 0 0  900000 0 0  950000 0 0  1000000 0 0  0 50000 0  50000 50000 0  100000 50000 0  150000 50000 0  200000 50000 0  250000 50000 0  300000 50000 0  350000 50000 0  400000 50000 0  450000 50000 0  500000 50000 0  550000 50000 0  600000 50000 0  650000 50000 0  700000 50000 0  750000 50000 0  800000 50000 0  850000 50000 0  900000 50000 0  950000 50000 0  1000000 50000 0  0 100000 0  50000 100000 0  100000 100000 0  150000 100000 0  200000 100000 0  250000 100000 0  300000 100000 0  350000 100000 0  400000 100000 0  450000 100000 0  500000 100000 0  550000 100000 0  600000 100000 0  650000 100000 0  700000 100000 0  750000 100000 0  800000 100000 0  850000 100000 0  900000 100000 0  950000 100000 0  1000000 100000 0  0 150000 0  50000 150000 0  100000 150000 0  150000 150000 0  200000 150000 0  250000 150000 0  300000 150000 0  350000 150000 0  400000 150000 0  450000 150000 0  500000 150000 0  550000 150000 0  600000 150000 0  650000 150000 0  700000 150000 0  750000 150000 0  800000 150000 0  850000 150000 0  900000 150000 0  950000 150000 0  1000000 150000 0  0 200000 0  50000 200000 0  100000 200000 0  150000 200000 0  200000 200000 0  250000 200000 0  300000 200000 0  350000 200000 0  400000 200000 0  450000 200000 0  500000 200000 0  550000 200000 0  600000 200000 0  650000 200000 0  700000 200000 0  750000 200000 0  800000 200000 0  850000 200000 0  900000 200000 0  950000 200000 0  1000000 200000 0  0 250000 0  50000 250000 0  100000 250000 0  150000 250000 0  200000 250000 0  250000 250000 0  300000 250000 0  350000 250000 0  400000 250000 0  450000 250000 0  500000 250000 0  550000 250000 0  600000 250000 0  650000 250000 0  700000 250000 0  750000 250000 0  800000 250000 0  850000 250000 0  900000 250000 0  950000 250000 0  1000000 250000 0  0 300000 0  50000 300000 0  100000 300000 0  150000 300000 0  200000 300000 0  250000 300000 0  300000 300000 0  350000 300000 0  400000 300000 0  450000 300000 0  500000 300000 0  550000 300000 0  600000 300000 0  650000 300000 0  700000 300000 0  750000 300000 0  800000 300000 0  850000 300000 0  900000 300000 0  950000 300000 0  1000000 300000 0  0 350000 0  50000 350000 0  100000 350000 0  150000 350000 0  200000 350000 0  250000 350000 0  300000 350000 0  350000 350000 0  400000 350000 0  450000 350000 0  500000 350000 0  550000 350000 0  600000 350000 0  650000 350000 0  700000 350000 0  750000 350000 0  800000 350000 0  850000 350000 0  900000 350000 0  950000 350000 0  1000000 350000 0  0 400000 0  50000 400000 0  100000 400000 0  150000 400000 0  200000 400000 0  250000 400000 0  300000 400000 0  350000 400000 0  400000 400000 0  450000 400000 0  500000 400000 0  550000 400000 0  600000 400000 0  650000 400000 0  700000 400000 0  750000 400000 0  800000 400000 0  850000 400000 0  900000 400000 0  950000 400000 0  1000000 400000 0  0 450000 0  50000 450000 0  100000 450000 0  150000 450000 0  200000 450000 0  250000 450000 0  300000 450000 0  350000 450000 0  400000 450000 0  450000 450000 0  500000 450000 0  550000 450000 0  600000 450000 0  650000 450000 0  700000 450000 0  750000 450000 0  800000 450000 0  850000 450000 0  900000 450000 0  950000 450000 0  1000000 450000 0  0 500000 0  50000 500000 0  100000 500000 0  150000 500000 0  200000 500000 0  250000 500000 0  300000 500000 0  350000 500000 0  400000 500000 0  450000 500000 0  500000 500000 0  550000 500000 0  600000 500000 0  650000 500000 0  700000 500000 0  750000 500000 0  800000 500000 0  850000 500000 0  900000 500000 0  950000 500000 0  1000000 500000 0  0 550000 0  50000 550000 0  100000 550000 0  150000 550000 0  200000 550000 0  250000 550000 0  300000 550000 0  350000 550000 0  400000 550000 0  450000 550000 0  500000 550000 0  550000 550000 0  600000 550000 0  650000 550000 0  700000 550000 0  750000 550000 0  800000 550000 0  850000 550000 0  900000 550000 0  950000 550000 0  1000000 550000 0  0 600000 0  50000 600000 0  100000 600000 0  150000 600000 0  200000 600000 0  250000 600000 0  300000 600000 0  350000 600000 0  400000 600000 0  450000 600000 0  500000 600000 0  550000 600000 0  600000 600000 0  650000 600000 0  700000 600000 0  750000 600000 0  800000 600000 0  850000 600000 0  900000 600000 0  950000 600000 0  1000000 600000 0  0 650000 0  50000 650000 0  100000 650000 0  150000 650000 0  200000 650000 0  250000 650000 0  300000 650000 0  350000 650000 0  400000 650000 0  450000 650000 0  500000 650000 0  550000 650000 0  600000 650000 0  650000 650000 0  700000 650000 0  750000 650000 0  800000 650000 0  850000 650000 0  900000 650000 0  950000 650000 0  1000000 650000 0  0 700000 0  50000 700000 0  100000 700000 0  150000 700000 0  200000 700000 0  250000 700000 0  300000 700000 0  350000 700000 0  400000 700000 0  450000 700000 0  500000 700000 0  550000 700000 0  600000 700000 0  650000 700000 0  700000 700000 0  750000 700000 0  800000 700000 0  850000 700000 0  900000 700000 0  950000 700000 0  1000000 700000 0  0 750000 0  50000 750000 0  100000 750000 0  150000 750000 0  200000 750000 0  250000 750000 0  300000 750000 0  350000 750000 0  400000 750000 0  450000 750000 0  500000 750000 0  550000 750000 0  600000 750000 0  650000 750000 0  700000 750000 0  750000 750000 0  800000 750000 0  850000 750000 0  900000 750000 0  950000 750000 0  1000000 750000 0  0 800000 0  50000 800000 0  100000 800000 0  150000 800000 0  200000 800000 0  250000 800000 0  300000 800000 0  350000 800000 0  400000 800000 0  450000 800000 0  500000 800000 0  550000 800000 0  600000 800000 0  650000 800000 0  700000 800000 0  750000 800000 0  800000 800000 0  850000 800000 0  900000 800000 0  950000 800000 0  1000000 800000 0  0 850000 0  50000 850000 0  100000 850000 0  150000 850000 0  200000 850000 0  250000 850000 0  300000 850000 0  350000 850000 0  400000 850000 0  450000 850000 0  500000 850000 0  550000 850000 0  600000 850000 0  650000 850000 0  700000 850000 0  750000 850000 0  800000 850000 0  850000 850000 0  900000 850000 0  950000 850000 0  1000000 850000 0  0 900000 0  50000 900000 0  100000 900000 0  150000 900000 0  200000 900000 0  250000 900000 0  300000 900000 0  350000 900000 0  400000 900000 0  450000 900000 0  500000 900000 0  550000 900000 0  600000 900000 0  650000 900000 0  700000 900000 0  750000 900000 0  800000 900000 0  850000 900000 0  900000 900000 0  950000 900000 0  1000000 900000 0  0 950000 0  50000 950000 0  100000 950000 0  150000 950000 0  200000 950000 0  250000 950000 0  300000 950000 0  350000 950000 0  400000 950000 0  450000 950000 0  500000 950000 0  550000 950000 0  600000 950000 0  650000 950000 0  700000 950000 0  750000 950000 0  800000 950000 0  850000 950000 0  900000 950000 0  950000 950000 0  1000000 950000 0  0 1000000 0  50000 1000000 0  100000 1000000 0  150000 1000000 0  200000 1000000 0  250000 1000000 0  300000 1000000 0  350000 1000000 0  400000 1000000 0  450000 1000000 0  500000 1000000 0  550000 1000000 0  600000 1000000 0  650000 1000000 0  700000 1000000 0  750000 1000000 0  800000 1000000 0  850000 1000000 0  900000 1000000 0  950000 1000000 0  1000000 1000000 0  0 1050000 0  50000 1050000 0  100000 1050000 0  150000 1050000 0  200000 1050000 0  250000 1050000 0  300000 1050000 0  350000 1050000 0  400000 1050000 0  450000 1050000 0  500000 1050000 0  550000 1050000 0  600000 1050000 0  650000 1050000 0  700000 1050000 0  750000 1050000 0  800000 1050000 0  850000 1050000 0  900000 1050000 0  950000 1050000 0  1000000 1050000 0  0 1100000 0  50000 1100000 0  100000 1100000 0  150000 1100000 0  200000 1100000 0  250000 1100000 0  300000 1100000 0  350000 1100000 0  400000 1100000 0  450000 1100000 0  500000 1100000 0  550000 1100000 0  600000 1100000 0  650000 1100000 0  700000 1100000 0  750000 1100000 0  800000 1100000 0  850000 1100000 0  900000 1100000 0  950000 1100000 0  1000000 1100000 0  0 1150000 0  50000 1150000 0  100000 1150000 0  150000 1150000 0  200000 1150000 0  250000 1150000 0  300000 1150000 0  350000 1150000 0  400000 1150000 0  450000 1150000 0  500000 1150000 0  550000 1150000 0  600000 1150000 0  650000 1150000 0  700000 1150000 0  750000 1150000 0  800000 1150000 0  850000 1150000 0  900000 1150000 0  950000 1150000 0  1000000 1150000 0  0 1200000 0  50000 1200000 0  100000 1200000 0  150000 1200000 0  200000 1200000 0  250000 1200000 0  300000 1200000 0  350000 1200000 0  400000 1200000 0  450000 1200000 0  500000 1200000 0  550000 1200000 0  600000 1200000 0  650000 1200000 0  700000 1200000 0  750000 1200000 0  800000 1200000 0  850000 1200000 0  900000 1200000 0  950000 1200000 0  1000000 1200000 0  0 1250000 0  50000 1250000 0  100000 1250000 0  150000 1250000 0  200000 1250000 0  250000 1250000 0  300000 1250000 0  350000 1250000 0  400000 1250000 0  450000 1250000 0  500000 1250000 0  550000 1250000 0  600000 1250000 0  650000 1250000 0  700000 1250000 0  750000 1250000 0  800000 1250000 0  850000 1250000 0  900000 1250000 0  950000 1250000 0  1000000 1250000 0  0 1300000 0  50000 1300000 0  100000 1300000 0  150000 1300000 0  200000 1300000 0  250000 1300000 0  300000 1300000 0  350000 1300000 0  400000 1300000 0  450000 1300000 0  500000 1300000 0  550000 1300000 0  600000 1300000 0  650000 1300000 0  700000 1300000 0  750000 1300000 0  800000 1300000 0  850000 1300000 0  900000 1300000 0  950000 1300000 0  1000000 1300000 0  0 1350000 0  50000 1350000 0  100000 1350000 0  150000 1350000 0  200000 1350000 0  250000 1350000 0  300000 1350000 0  350000 1350000 0  400000 1350000 0  450000 1350000 0  500000 1350000 0  550000 1350000 0  600000 1350000 0  650000 1350000 0  700000 135
[...]
<PointData  Vectors="f_5995"> 
<DataArray  type="Float64"  Name="f_5995"  NumberOfComponents="3" format="ascii">1.8397804465366617e-12 3.3034470767062256e-12 0.0000000000000000e+00  8.0002161928406468e-08 2.3344664302561578e-12 0.0000000000000000e+00  8.0001642343052819e-08 9.1473409374096748e-13 0.0000000000000000e+00  8.0001091509616117e-08 2.4350196519148511e-13 0.0000000000000000e+00  8.0000895436698258e-08 8.9862796281179180e-14 0.0000000000000000e+00  8.0000778395472634e-08 6.0085795745656476e-14 0.0000000000000000e+00  8.0000697042299358e-08 4.3296438026210819e-14 0.0000000000000000e+00  8.0000643595731088e-08 2.8942854089388547e-14 0.0000000000000000e+00  8.0000611194654545e-08 1.7312885396501637e-14 0.0000000000000000e+00  8.0000595190851918e-08 7.4611956191278447e-15 0.0000000000000000e+00  8.0000593369245414e-08 -1.8557743364141122e-15 0.0000000000000000e+00  8.0000605425401889e-08 -1.1816855002381967e-14 0.0000000000000000e+00  8.0000632814151318e-08 -2.3806317387739172e-14 0.0000000000000000e+00  8.0000679237716107e-08 -3.9800625889678306e-14 0.0000000000000000e+00  8.0000752681945753e-08 -6.1168783537627921e-14 0.0000000000000000e+00  8.0000868613347172e-08 -7.9203750932270478e-14 0.0000000000000000e+00  8.0001040687477287e-08 -7.0799201988969204e-14 0.0000000000000000e+00  8.0001317378712641e-08 -2.1314756821761698e-13 0.0000000000000000e+00  8.0002308716306775e-08 -1.5433744862186906e-12 0.0000000000000000e+00  8.0001759346111059e-08 -1.9489099493306174e-12 0.0000000000000000e+00  1.0923427758164890e-12 -1.8876302845445255e-12 0.0000000000000000e+00  1.3125122815415033e-12 2.6140871275379042e-12 0.0000000000000000e+00  1.1909341867623624e-08 -1.1445991218578571e-09 0.0000000000000000e+00  1.3786777072226711e-08 -8.9939747857229697e-10 0.0000000000000000e+00  1.5430461065194747e-08 -3.9599455709684461e-10 0.0000000000000000e+00  1.6002148721395866e-08 -2.3340155059706250e-10 0.0000000000000000e+00  1.6213483121681851e-08 -1.4175041589172013e-10 0.0000000000000000e+00  1.6330790231127321e-08 -8.2266564373893855e-11 0.0000000000000000e+00  1.6406590451786447e-08 -4.2741929593488604e-11 0.0000000000000000e+00  1.6454075779976165e-08 -1.4276047633038032e-11 0.0000000000000000e+00  1.6479838608747353e-08 8.6124529231791426e-12 0.0000000000000000e+00  1.6487382775934699e-08 2.9401423238955125e-11 0.0000000000000000e+00  1.6477842641911061e-08 5.0826902274770157e-11 0.0000000000000000e+00  1.6450293353848436e-08 7.5755476433340295e-11 0.0000000000000000e+00  1.6401602262273921e-08 1.0807888479750598e-10 0.0000000000000000e+00  1.6325972662111412e-08 1.5394629475127918e-10 0.0000000000000000e+00  1.6215624052267618e-08 2.2291776538215665e-10 0.0000000000000000e+00  1.6063744350711436e-08 3.3029789490651320e-10 0.0000000000000000e+00  1.5817812514865668e-08 5.5132920606314637e-10 0.0000000000000000e+00  1.4949070727386489e-08 1.4080409444064518e-09 0.0000000000000000e+00  1.1458132389662342e-08 4.0044955296570494e-09 0.0000000000000000e+00  1.5219078365031861e-12 -2.1760126050919655e-12 0.0000000000000000e+00  4.4233719774676335e-13 1.3240511386731978e-12 0.0000000000000000e+00  3.1297259780214633e-10 -2.6217142972874107e-09 0.0000000000000000e+00  1.8734730973996021e-09 -1.2896790298321324e-09 0.0000000000000000e+00  1.5944188566464103e-09 -8.0991447665579300e-10 0.0000000000000000e+00  1.8258517841241585e-09 -5.1434823832009834e-10 0.0000000000000000e+00  2.0365927749026797e-09 -3.2734219700319579e-10 0.0000000000000000e+00  2.1653430014645225e-09 -2.0992254824336094e-10 0.0000000000000000e+00  2.2465524972034333e-09 -1.3129793054789730e-10 0.0000000000000000e+00  2.2981995661180146e-09 -7.4028009360315632e-11 0.0000000000000000e+00  2.3275410185081574e-09 -2.8008005394050869e-11 0.0000000000000000e+00  2.3379742346606399e-09 1.3303254986632309e-11 0.0000000000000000e+00  2.3308449091615899e-09 5.5010729653639839e-11 0.0000000000000000e+00  2.3058947741812447e-09 1.0221255239579490e-10 0.0000000000000000e+00  2.2614365534395379e-09 1.6136084913365519e-10 0.0000000000000000e+00  2.1946341642993794e-09 2.4215592520087100e-10 0.0000000000000000e+00  2.1022688937589373e-09 3.6130801279900393e-10 0.0000000000000000e+00  1.9796448962746547e-09 5.5398596074861516e-10 0.0000000000000000e+00  1.8043761860998301e-09 9.0806979385841493e-10 0.0000000000000000e+00  1.5298837879009113e-09 1.5607054641475797e-09 0.0000000000000000e+00  1.3696099319317514e-09 2.0557907917173957e-09 0.0000000000000000e+00  1.2107403707901618e-12 -2.3165595665920424e-12 0.0000000000000000e+00  1.6319051895162394e-13 9.0619794440603908e-13 0.0000000000000000e+00  -3.6989649816599800e-10 -1.5059162377944279e-09 0.0000000000000000e+00  -4.4131698939411374e-10 -1.4135245270773647e-09 0.0000000000000000e+00  -5.3839847969207361e-10 -9.8712175684001288e-10 0.0000000000000000e+00  -5.5158610363197383e-10 -6.5538652750143592e-10 0.0000000000000000e+00  -4.9789876469403994e-10 -4.4196857185765437e-10 0.0000000000000000e+00  -4.3014320109778594e-10 -2.9660371314119901e-10 0.0000000000000000e+00  -3.7554186672990692e-10 -1.9350741197421419e-10 0.0000000000000000e+00  -3.3760225493137065e-10 -1.1569352888112468e-10 0.0000000000000000e+00  -3.1478687169753470e-10 -5.1954107366890194e-11 0.0000000000000000e+00  -3.0569213987881238e-10 5.5001281346949058e-12 0.0000000000000000e+00  -3.0952684340361920e-10 6.2919793937345229e-11 0.0000000000000000e+00  -3.2596474650166314e-10 1.2641084854835667e-10 0.0000000000000000e+00  -3.5482082683744569e-10 2.0323321056222575e-10 0.0000000000000000e+00  -3.9533551236563750e-10 3.0345040729323636e-10 0.0000000000000000e+00  -4.4471055666246816e-10 4.4253863980141807e-10 0.0000000000000000e+00  -4.9500173742037589e-10 6.4481357068535238e-10 0.0000000000000000e+00  -5.2172658112728854e-10 9.3694853487011067e-10 0.0000000000000000e+00  -4.3866719499753946e-10 1.2734697244783884e-09 0.0000000000000000e+00  -7.6108131594978655e-11 1.2864222078661252e-09 0.0000000000000000e+00  1.1888477369249970e-13 -1.2254817633355126e-12 0.0000000000000000e+00  9.9936639386475334e-14 7.0523811215127587e-13 0.0000000000000000e+00  -2.9244301245161800e-10 -1.0159452638181011e-09 0.0000000000000000e+00  -5.6347966271579674e-10 -1.1509914703596744e-09 0.0000000000000000e+00  -7.0505757834708563e-10 -9.1437782815962245e-10 0.0000000000000000e+00  -7.9197526472360245e-10 -6.7701764279943131e-10 0.0000000000000000e+00  -8.0656982671084306e-10 -4.8353254941857782e-10 0.0000000000000000e+00  -7.9368485502318475e-10 -3.3822995621315703e-10 0.0000000000000000e+00  -7.7295610879568296e-10 -2.2775099185390509e-10 0.0000000000000000e+00  -7.5406154591584655e-10 -1.4002072921142537e-10 0.0000000000000000e+00  -7.4099764914704403e-10 -6.5889235690304448e-11 0.0000000000000000e+00  -7.3496272524504942e-10 1.7905569515084740e-12 0.0000000000000000e+00  -7.3602059679113840e-10 6.9103890910400458e-11 0.0000000000000000e+00  -7.4357429753907985e-10 1.4194996140379233e-10 0.0000000000000000e+00  -7.5615461920846966e-10 2.2686137466388429e-10 0.0000000000000000e+00  -7.7060553555692773e-10 3.3177394699255896e-10 0.0000000000000000e+00  -7.8032220971540217e-10 4.6639483116197110e-10 0.0000000000000000e+00  -7.7147076098730789e-10 6.4014189247304914e-10 0.0000000000000000e+00  -7.1510285905874866e-10 8.5034788791777585e-10 0.0000000000000000e+00  -5.5976661643979061e-10 1.0435323033880899e-09 0.0000000000000000e+00  -2.7117905622382495e-10 1.0075508610393737e-09 0.0000000000000000e+00  5.4501280972868326e-14 -9.0409531888024740e-13 0.0000000000000000e+00  7.9238863283169670e-14 5.6103628501535379e-13 0.0000000000000000e+00  -2.1196877923269022e-10 -7.8235768481302327e-10 0.0000000000000000e+00  -4.3130860710518073e-10 -9.0466328245079635e-10 0.0000000000000000e+00  -5.8956652566880064e-10 -7.8935295675058384e-10 0.0000000000000000e+00  -6.8841415782177591e-10 -6.2452489601655112e-10 0.0000000000000000e+00  -7.3943902284940370e-10 -4.7200491500735188e-10 0.0000000000000000e+00  -7.5914325734744495e-10 -3.4406208162804252e-10 0.0000000000000000e+00  -7.6309813603191924e-10 -2.3855994060483223e-10 0.0000000000000000e+00  -7.6074957916559425e-10 -1.5002381310048860e-10 0.0000000000000000e+00  -7.5705996831614817e-10 -7.2499555407084237e-11 0.0000000000000000e+00  -7.5436282575949784e-10 -5.1972320490709991e-13 0.0000000000000000e+00  -7.5331766992410752e-10 7.0943373525224099e-11 0.0000000000000000e+00  -7.5330644404327891e-10 1.4676897634695481e-10 0.0000000000000000e+00  -7.5233267927394643e-10 2.3195637858445817e-10 0.0000000000000000e+00  -7.4641808459231881e-10 3.3164762823525207e-10 0.0000000000000000e+00  -7.2840951574128016e-10 4.5040202798702006e-10 0.0000000000000000e+00  -6.8616864631043347e-10 5.8950017783734958e-10 0.0000000000000000e+00  -6.0124080771077391e-10 7.3970960881154096e-10 0.0000000000000000e+00  -4.5337685486029823e-10 8.6200103094647718e-10 0.0000000000000000e+00  -2.3978555200872176e-10 8.0951756560203365e-10 0.0000000000000000e+00  9.5800145162183578e-14 -6.9777167791665502e-13 0.0000000000000000e+00  6.3527931837091011e-14 4.4856208067586325e-13 0.0000000000000000e+00  -1.5843541938361279e-10 -6.2242489465020362e-10 0.0000000000000000e+00  -3.2738951891341557e-10 -7.2553067782104228e-10 0.0000000000000000e+00  -4.6664334350006664e-10 -6.6121141604719735e-10 0.0000000000000000e+00  -5.6550063793848550e-10 -5.4870118757709142e-10 0.0000000000000000e+00  -6.2936679009837032e-10 -4.3258283449613315e-10 0.0000000000000000e+00  -6.6639503753509755e-10 -3.2606020554727452e-10 0.0000000000000000e+00  -6.8612184117525907e-10 -2.3201727679385784e-10 0.0000000000000000e+00  -6.9552728728230182e-10 -1.4883552799581951e-10 0.0000000000000000e+00  -6.9908375351374039e-10 -7.3387603382378336e-11 0.0000000000000000e+00  -6.9919637247549534e-10 -2.0894699498857775e-12 0.0000000000000000e+00  -6.9668285158884211e-10 6.8694584532645811e-11 0.0000000000000000e+00  -6.9100675422054781e-10 1.4251868028958358e-10 0.0000000000000000e+00  -6.8023004705222986e-10 2.2274132571243948e-10 0.0000000000000000e+00  -6.6071096271412809e-10 3.1219123916554612e-10 0.0000000000000000e+00  -6.2664132492931517e-10 4.1229958742750748e-10 0.0000000000000000e+00  -5.6978507409350562e-10 5.2123137432801862e-10 0.0000000000000000e+00  -4.8047466138667397e-10 6.2995346756119469e-10 0.0000000000000000e+00  -3.5164354543726562e-10 7.0981785722295855e-10 0.0000000000000000e+00  -1.8548909841127547e-10 6.5012468998142662e-10 0.0000000000000000e+00  8.7737552415679916e-14 -5.4589486593306540e-13 0.0000000000000000e+00  5.1219606539256356e-14 3.6013194128256281e-13 0.0000000000000000e+00  -1.2378817640521417e-10 -4.9911487389638540e-10 0.0000000000000000e+00  -2.5776254099263756e-10 -5.8745732929713321e-10 0.0000000000000000e+00  -3.7501259748355086e-10 -5.4757015158293919e-10 0.0000000000000000e+00  -4.6664414995836814e-10 -4.6901896088128786e-10 0.0000000000000000e+00  -5.3280421623786888e-10 -3.8104506851623273e-10 0.0000000000000000e+00  -5.7752572621206212e-10 -2.9484586133840091e-10 0.0000000000000000e+00  -6.0596290696015962e-10 -2.1427623463712356e-10 0.0000000000000000e+00  -6.2275057753650408e-10 -1.3976740998104688e-10 0.0000000000000000e+00  -6.3122282433709827e-10 -7.0056619640362784e-11 0.0000000000000000e+00  -6.3336102641912397e-10 -3.0976861257527853e-12 0.0000000000000000e+00  -6.2990712897054559e-10 6.3436698047445293e-11 0.0000000000000000e+00  -6.2044813987692033e-10 1.3184826231429920e-10 0.0000000000000000e+00  -6.0341401401082360e-10 2.0412817908392278e-10 0.0000000000000000e+00  -5.7601145016151736e-10 2.8154612206125474e-10 0.0000000000000000e+00  -5.3422044526051977e-10 3.6397354912759570e-10 0.0000000000000000e+00  -4.7314599810683859e-10 4.4877849504728122e-10 0.0000000000000000e+00  -3.8819904614187967e-10 5.2853979795551905e-10 0.0000000000000000e+00  -2.7739426731556927e-10 5.8190067249291393e-10 0.0000000000000000e+00  -1.4388226745842171e-10 5.2370112973810379e-10 0.0000000000000000e+00  6.9313336963312246e-14 -4.3500550529419842e-13 0.0000000000000000e+00  4.2345663356386375e-14 2.8877187451199400e-13 0.0000000000000000e+00  -1.0053459254197391e-10 -4.0049988896765320e-10 0.0000000000000000e+00  -2.1009549910304698e-10 -4.7522567068072866e-10 0.0000000000000000e+00  -3.0941112508285430e-10 -4.4948873869935432e-10 0.0000000000000000e+00  -3.9171888197886976e-10 -3.9294204843248470e-10 0.0000000000000000e+00  -4.5557934980273365e-10 -3.2616838249831664e-10 0.0000000000000000e+00  -5.0243134655933274e-10 -2.5739636932006971e-10 0.0000000000000000e+00  -5.3489717593708584e-10 -1.9019659660802650e-10 0.0000000000000000e+00  -5.5573140138534827e-10 -1.2576855731547718e-10 0.0000000000000000e+00  -5.6715113509247253e-10 -6.3914255465311955e-11 0.0000000000000000e+00  -5.7058251626186117e-10 -3.6696497106175062e-12 0.0000000000000000e+00  -5.6659489225282389e-10 5.6267026949417046e-11 0.0000000000000000e+00  -5.5490409524403995e-10 1.1720455666598189e-10 0.0000000000000000e+00  -5.3439368913658862e-10 1.8014843525251960e-10 0.0000000000000000e+00  -5.0317324971372844e-10 2.4544120348212345e-10 0.0000000000000000e+00  -4.5875958244524264e-10 3.1230590255899853e-10 0.0000000000000000e+00  -3.9852899161638093e-10 3.7821899964162897e-10 0.0000000000000000e+00  -3.2058614784343317e-10 4.3746382972784265e-10 0.0000000000000000e+00  -2.2500025833201360e-10 4.7409505349987781e-10 0.0000000000000000e+00  -1.1497971974626600e-10 4.2197677866225136e-10 0.0000000000000000e+00  5.5051577226232386e-14 -3.4913146199556865e-13 0.0000000000000000e+00  3.6015363067203473e-14 2.2938917746061097e-13 0.0000000000000000e+00  -8.4328905653142292e-11 -3.1920162956263861e-10 0.0000000000000000e+00  -1.7645873581934815e-10 -3.8123717531332903e-10 0.0000000000000000e+00  -2.6188936215973291e-10 -3.6435849030190393e-10 0.0000000000000000e+00  -3.3538054076345618e-10 -3.2292791871079024e-10 0.0000000000000000e+00  -3.9514391494443710e-10 -2.7216122347882374e-10 0.0000000000000000e+00  -4.4128918378835672e-10 -2.1793058362461574e-10 0.0000000000000000e+00  -4.7494501385335088e-10 -1.6312572317304572e-10 0.0000000000000000e+00  -4.9757580341818704e-10 -1.0907561561575492e-10 0.0000000000000000e+00  -5.1050861828092097e-10 -5.6107687927612039e-11 0.0000000000000000e+00  -5.1466167073881669e-10 -3.9302572678925502e-12 0.0000000000000000e+00  -5.1042391118403091e-10 4.8049238988828026e-11 0.0000000000000000e+00  -4.9762261886025676e-10 1.0044472986499735e-10 0.0000000000000000e+00  -4.7555208681591411e-10 1.5362543756134602e-10 0.0000000000000000e+00  -4.4307274524695708e-10 2.0744252649736556e-10 0.0000000000000000e+00  -3.9882210728940080e-10 2.6094042006149647e-10 0.0000000000000000e+00  -3.4159212787778059e-10 3.1200250991207341e-10 0.0000000000000000e+00  -2.7089482671396623e-10 3.5637550497492433e-10 0.0000000000000000e+00  -1.8764044593617681e-10 3.8218354517131426e-10 0.0000000000000000e+00  -9.4785682692611412e-11 3.3796068336077271e-10 0.0000000000000000e+00  4.5105432771925878e-14 -2.7953094449899176e-13 0.0000000000000000e+00  3.1464914494835518e-14 1.7855750183861469e-13 0.0000000000000000e+00  -7.2796066489977593e-11 -2.5020950880541192e-10 0.0000000000000000e+00  -1.5229125909202613e-10 -3.0063917588012529e-10 0.0000000000000000e+00  -2.2710785916957380e-10 -2.8957104774410578e-10 0.0000000000000000e+00  -2.9307682240643470e-10 -2.5915287377642458e-10 0.0000000000000000e+00  -3.4841278765745067e-10 -2.2080005857568930e-10 0.0000000000000000e+00  -3.9260120999777228e-10 -1.7873088589653076e-10 0.0000000000000000e+00  -4.2590807435635653e-10 -1.3513411401369024e-10 0.0000000000000000e+00  -4.4897187120666477e-10 -9.1204350231712647e-11 0.0000000000000000e+00  -4.6248227679617627e-10 -4.7464872710638598e-11 0.0000000000000000e+00  -4.6696244471565061e-10 -3.9913848060818190e-12 0.0000000000000000e+00  -4.6265038291314616e-10 3.9373152651178336e-11 0.0000000000000000e+00  -4.4945891455259227e-10 8.2810026395845226e-11 0.0000000000000000e+00  -4.2700246757187285e-10 1.2632333103898949e-10 0.0000000000000000e+00  -3.9469338098645835e-10 1.6954837247238704e-10 0.0000000000000000e+00  -3.5192124807554574e-10 2.1157570629965259e-10 0.0000000000000000e+00  -2.9832579530879524e-10 2.5075002671473651e-10 0.0000000000000000e+00  -2.3414994959315095e-10 2.8398981269994445e-10 0.0000000000000000e+00  -1.6062565167550937e-10 3.0254227638229467e-10 0.0000000000000000e+00  -8.0403741693441324e-11 2.6673955537745930e-10 0.0000000000000000e+00  3.8039087676747856e-14 -2.2135538376342978e-13 0.0000000000000000e+00  2.8222584686521977e-14 1.3387222266256766e-13 0.0000000000000000e+00  -6.4585105414372759e-11 -1.9004970205702110e-10 0.0000000000000000e+00  -1.3491946045882409e-10 -2.2991652204430838e-10 0.0000000000000000e+00  -2.0174648945821562e-10 -2.2287681796189044e-10 0.0000000000000000e+00  -2.6164909194663314e-10 -2.0091884409169945e-10 0.0000000000000000e+00  -3.1294476026329719e-10 -1.7256480044458210e-10 0.0000000000000000e+00  -3.5483373054681320e-10 -1.4084567601428375e-10 0.0000000000000000e+00  -3.8710091403908840e-10 -1.0735909365335662e-10 0.0000000000000000e+00  -4.0987577363386669e-10 -7.3071937453414981e-11 0.0000000000000000e+00  -4.2342323973070373e-10 -3.8521077862403341e-11 0.0000000000000000e+00  -4.2798657919957238e-10 -3.9425196057834136e-12 0.0000000000000000e+00  -4.2369165938614354e-10 3.0592347480014873e-11 0.0000000000000000e+00  -4.1051147697020444e-10 6.5033604863744070e-11 0.0000000000000000e+00  -3.8828764809450357e-10 9.9212557261851618e-11 0.0000000000000000e+00  -3.5680830046498780e-10 1.3271502330786787e-10 0.0000000000000000e+00  -3.1594246630585862e-10 1.6477741010531303e-10 0.0000000000000000e+00  -2.6582499958767188e-10 1.9417396683529659e-10 0.0000000000000000e+00  -2.0707408278322222e-10 2.1874762861937048e-10 0.0000000000000000e+00  -1.4102271228962252e-10 2.3222929576461311e-10 0.0000000000000000e+00  -7.0064510900908094e-11 2.0483890899256129e-10 0.0000000000000000e+00  3.2936283080490744e-14 -1.7139884596100892e-13 0.0000000000000000e+00  2.6006654012822117e-14 9.3534118620377782e-14 0.0000000000000000e+00  -5.8897280265694579e-11 -1.3618147950549953e-10 0.0000000000000000e+00  -1.2273534954064885e-10 -1.6637924285376430e-10 0.0000000000000000e+00  -1.8373540427942834e-10 -1.6232689002804519e-10 0.0000000000000000e+00  -2.3900589956345757e-10 -1.4722078330236290e-10 0.0000000000000000e+00  -2.8698105593160536e-10 -1.2726010893732330e-10 0.0000000000000000e+00  -3.2673789272126308e-10 -1.0458191864855495e-10 0.0000000000000000e+00  -3.5780081068524798e-10 -8.0306697742356942e-11 0.0000000000000000e+00  -3.7999719630573282e-10 -5.5154359879668538e-11 0.0000000000000000e+00  -3.9332404209417424e-10 -2.9580219009892815e-11 0.0000000000000000e+00  -3.9783962577741942e-10 -3.8490990338454269e-12 0.0000000000000000e+00  -3.9359288613342031e-10 2.1882576092361088e-11 0.0000000000000000e+00  -3.8059591642909173e-10 4.7475416233594284e-11 0.0000000000000000e+00  -3.5884025344266951e-10 7.2716249578804636e-11 0.0000000000000000e+00  -3.2835514710749058e-10 9.7238940518535512e-11 0.0000000000000000e+00  -2.8930285922022702e-10 1.2046585237268448e-10 0.0000000000000000e+00  -2.4210078132926092e-10 1.4154985000451713e-10 0.0000000000000000e+00  -1.8755642759052055e-10 1.5907680662020605e-10 0.0000000000000000e+00  -1.2701811524743358e-10 1.6884307393828458e-10 0.0000000000000000e+00  -6.2699571498290362e-11 1.4967752139920492e-10 0.0000000000000000e+00  2.9265576441544286e-14 -1.2735192246596224e-13 0.0000000000000000e+00  2.4648648063329745e-14 5.6110103025081631e-14 0.0000000000000000e+00  -5.5255625266130356e-11 -8.6623914730154981e-11 0.0000000000000000e+00  -1.1476430960992726e-10 -1.0786344850332673e-10 0.0000000000000000e+00  -1.7178605959175171e-10 -1.0620615368815767e-10 0.0000000000000000e+00  -2.2379134937236699e-10 -9.6956493006575083e-11 0.0000000000000000e+00  -2.6931359113616363e-10 -8.4350473391076408e-11 0.0000000000000000e+00  -3.0738376020659159e