<?xml version="1.0"?>
<VTKFile type="UnstructuredGrid"  version="0.1"  >
<UnstructuredGrid>
<Piece  NumberOfPoints="651" NumberOfCells="1200">
<Points>
<DataArray  type="Float64"  NumberOfComponents="3"  format="ascii">0 0 0  50000 0 0  100000 0 0  150000 0 0  200000 0 0  250000 0 0  300000 0 0  350000 0 0  400000 0 0  450000 0 0  500000 0 0  550000 0 0  600000 0 0  650000 0 0  700000 0 0  750000 0 0  800000 0 0  850000 0 0  900000 0 0  950000 0 0  1000000 0 0  0 50000 0  50000 50000 0  100000 50000 0  150000 50000 0  200000 50000 0  250000 50000 0  300000 50000 0  350000 50000 0  400000 50000 0  450000 50000 0  500000 50000 0  550000 50000 0  600000 50000 0  650000 50000 0  700000 50000 0  750000 50000 0  800000 50000 0  850000 50000 0  900000 50000 0  950000 50000 0  1000000 50000 0  0 100000 0  50000 100000 0  100000 100000 0  150000 100000 0  200000 100000 0  250000 100000 0  300000 100000 0  350000 100000 0  400000 100000 0  450000 100000 0  500000 100000 0  550000 100000 0  600000 100000 0  650000 100000 0  700000 100000 0  750000 100000 0  800000 100000 0  850000 100000 0  900000 100000 0  950000 100000 0  1000000 100000 0  0 150000 0  50000 150000 0  100000 150000 0  150000 150000 0  200000 150000 0  250000 150000 0  300000 150000 0  350000 150000 0  400000 150000 0  450000 150000 0  500000 150000 0  550000 150000 0  600000 150000 0  650000 150000 0  700000 150000 0  750000 150000 0  800000 150000 0  850000 150000 0  900000 150000 0  950000 150000 0  1000000 150000 0  0 200000 0  50000 200000 0  100000 200000 0  150000 200000 0  200000 200000 0  250000 200000 0  300000 200000 0  350000 200000 0  400000 200000 0  450000 200000 0  500000 200000 0  550000 200000 0  600000 200000 0  650000 200000 0  700000 200000 0  750000 200000 0  800000 200000 0  850000 200000 0  900000 200000 0  950000 200000 0  1000000 200000 0  0 250000 0  50000 250000 0  100000 250000 0  150000 250000 0  200000 250000 0  250000 250000 0  300000 250000 0  350000 250000 0  400000 250000 0  450000 250000 0  500000 250000 0  550000 250000 0  600000 250000 0  650000 250000 0  700000 250000 0  750000 250000 0  800000 250000 0  850000 250000 0  900000 250000 0  950000 250000 0  1000000 250000 0  0 300000 0  50000 300000 0  100000 300000 0  150000 300000 0  200000 300000 0  250000 300000 0  300000 300000 0  350000 300000 0  400000 300000 0  450000 300000 0  500000 300000 0  550000 300000 0  600000 300000 0  650000 300000 0  700000 300000 0  750000 300000 0  800000 300000 0  850000 300000 0  900000 300000 0  950000 300000 0  1000000 300000 0  0 350000 0  50000 350000 0  100000 350000 0  150000 350000 0  200000 350000 0  250000 350000 0  300000 350000 0  350000 350000 0  400000 350000 0  450000 350000 0  500000 350000 0  550000 350000 0  600000 350000 0  650000 350000 0  700000 350000 0  750000 350000 0  800000 350000 0  850000 350000 0  900000 350000 0  950000 350000 0  1000000 350000 0  0 400000 0  50000 400000 0  100000 400000 0  150000 400000 0  200000 400000 0  250000 400000 0  300000 400000 0  350000 400000 0  400000 400000 0  450000 400000 0  500000 400000 0  550000 400000 0  600000 400000 0  650000 400000 0  700000 400000 0  750000 400000 0  800000 400000 0  850000 400000 0  900000 400000 0  950000 400000 0  1000000 400000 0  0 450000 0  50000 450000 0  100000 450000 0  150000 450000 0  200000 450000 0  250000 450000 0  300000 450000 0  350000 450000 0  400000 450000 0  450000 450000 0  500000 450000 0  550000 450000 0  600000 450000 0  650000 450000 0  700000 450000 0  750000 450000 0  800000 450000 0  850000 450000 0  900000 450000 0  950000 450000 0  1000000 450000 0  0 500000 0  50000 500000 0  100000 500000 0  150000 500000 0  200000 500000 0  250000 500000 0  300000 500000 0  350000 500000 0  400000 500000 0  450000 500000 0  500000 500000 0  550000 500000 0  600000 500000 0  650000 500000 0  700000 500000 0  750000 500000 0  800000 500000 0  850000 500000 0  900000 500000 0  950000 500000 0  1000000 500000 0  0 550000 0  50000 550000 0  100000 550000 0  150000 550000 0  200000 550000 0  250000 550000 0  300000 550000 0  350000 550000 0  400000 550000 0  450000 550000 0  500000 550000 0  550000 550000 0  600000 550000 0  650000 550000 0  700000 550000 0  750000 550000 0  800000 550000 0  850000 550000 0  900000 550000 0  950000 550000 0  1000000 550000 0  0 600000 0  50000 600000 0  100000 600000 0  150000 600000 0  200000 600000 0  250000 600000 0  300000 600000 0  350000 600000 0  400000 600000 0  450000 600000 0  500000 600000 0  550000 600000 0  600000 600000 0  650000 600000 0  700000 600000 0  750000 600000 0  800000 600000 0  850000 600000 0  900000 600000 0  950000 600000 0  1000000 600000 0  0 650000 0  50000 650000 0  100000 650000 0  150000 650000 0  200000 650000 0  250000 650000 0  300000 650000 0  350000 650000 0  400000 650000 0  450000 650000 0  500000 650000 0  550000 650000 0  600000 650000 0  650000 650000 0  700000 650000 0  750000 650000 0  800000 650000 0  850000 650000 0  900000 650000 0  950000 650000 0  1000000 650000 0  0 700000 0  50000 700000 0  100000 700000 0  150000 700000 0  200000 700000 0  250000 700000 0  300000 700000 0  350000 700000 0  400000 700000 0  450000 700000 0  500000 700000 0  550000 700000 0  600000 700000 0  650000 700000 0  700000 700000 0  750000 700000 0  800000 700000 0  850000 700000 0  900000 700000 0  950000 700000 0  1000000 700000 0  0 750000 0  50000 750000 0  100000 750000 0  150000 750000 0  200000 750000 0  250000 750000 0  300000 750000 0  350000 750000 0  400000 750000 0  450000 750000 0  500000 750000 0  550000 750000 0  600000 750000 0  650000 750000 0  700000 750000 0  750000 750000 0  800000 750000 0  850000 750000 0  900000 750000 0  950000 750000 0  1000000 750000 0  0 800000 0  50000 800000 0  100000 800000 0  150000 800000 0  200000 800000 0  250000 800000 0  300000 800000 0  350000 800000 0  400000 800000 0  450000 800000 0  500000 800000 0  550000 800000 0  600000 800000 0  650000 800000 0  700000 800000 0  750000 800000 0  800000 800000 0  850000 800000 0  900000 800000 0  950000 800000 0  1000000 800000 0  0 850000 0  50000 850000 0  100000 850000 0  150000 850000 0  200000 850000 0  250000 850000 0  300000 850000 0  350000 850000 0  400000 850000 0  450000 850000 0  500000 850000 0  550000 850000 0  600000 850000 0  650000 850000 0  700000 850000 0  750000 850000 0  800000 850000 0  850000 850000 0  900000 850000 0  950000 850000 0  1000000 850000 0  0 900000 0  50000 900000 0  100000 900000 0  150000 900000 0  200000 900000 0  250000 900000 0  300000 900000 0  350000 900000 0  400000 900000 0  450000 900000 0  500000 900000 0  550000 900000 0  600000 900000 0  650000 900000 0  700000 900000 0  750000 900000 0  800000 900000 0  850000 900000 0  900000 900000 0  950000 900000 0  1000000 900000 0  0 950000 0  50000 950000 0  100000 950000 0  150000 950000 0  200000 950000 0  250000 950000 0  300000 950000 0  350000 950000 0  400000 950000 0  450000 950000 0  500000 950000 0  550000 950000 0  600000 950000 0  650000 950000 0  700000 950000 0  750000 950000 0  800000 950000 0  850000 950000 0  900000 950000 0  950000 950000 0  1000000 950000 0  0 1000000 0  50000 1000000 0  100000 1000000 0  150000 1000000 0  200000 1000000 0  250000 1000000 0  300000 1000000 0  350000 1000000 0  400000 1000000 0  450000 1000000 0  500000 1000000 0  550000 1000000 0  600000 1000000 0  650000 1000000 0  700000 1000000 0  750000 1000000 0  800000 1000000 0  850000 1000000 0  900000 1000000 0  950000 1000000 0  1000000 1000000 0  0 1050000 0  50000 1050000 0  100000 1050000 0  150000 1050000 0  200000 1050000 0  250000 1050000 0  300000 1050000 0  350000 1050000 0  400000 1050000 0  450000 1050000 0  500000 1050000 0  550000 1050000 0  600000 1050000 0  650000 1050000 0  700000 1050000 0  750000 1050000 0  800000 1050000 0  850000 1050000 0  900000 1050000 0  950000 1050000 0  1000000 1050000 0  0 1100000 0  50000 1100000 0  100000 1100000 0  150000 1100000 0  200000 1100000 0  250000 1100000 0  300000 1100000 0  350000 1100000 0  400000 1100000 0  450000 1100000 0  500000 1100000 0  550000 1100000 0  600000 1100000 0  650000 1100000 0  700000 1100000 0  750000 1100000 0  800000 1100000 0  850000 1100000 0  900000 1100000 0  950000 1100000 0  1000000 1100000 0  0 1150000 0  50000 1150000 0  100000 1150000 0  150000 1150000 0  200000 1150000 0  250000 1150000 0  300000 1150000 0  350000 1150000 0  400000 1150000 0  450000 1150000 0  500000 1150000 0  550000 1150000 0  600000 1150000 0  650000 1150000 0  700000 1150000 0  750000 1150000 0  800000 1150000 0  850000 1150000 0  900000 1150000 0  950000 1150000 0  1000000 1150000 0  0 1200000 0  50000 1200000 0  100000 1200000 0  150000 1200000 0  200000 1200000 0  250000 1200000 0  300000 1200000 0  350000 1200000 0  400000 1200000 0  450000 1200000 0  500000 1200000 0  550000 1200000 0  600000 1200000 0  650000 1200000 0  700000 1200000 0  750000 1200000 0  800000 1200000 0  850000 1200000 0  900000 1200000 0  950000 1200000 0  1000000 1200000 0  0 1250000 0  50000 1250000 0  100000 1250000 0  150000 1250000 0  200000 1250000 0  250000 1250000 0  300000 1250000 0  350000 1250000 0  400000 1250000 0  450000 1250000 0  500000 1250000 0  550000 1250000 0  600000 1250000 0  650000 1250000 0  700000 1250000 0  750000 1250000 0  800000 1250000 0  850000 1250000 0  900000 1250000 0  950000 1250000 0  1000000 1250000 0  0 1300000 0  50000 1300000 0  100000 1300000 0  150000 1300000 0  200000 1300000 0  250000 1300000 0  300000 1300000 0  350000 1300000 0  400000 1300000 0  450000 1300000 0  500000 1300000 0  550000 1300000 0  600000 1300000 0  650000 1300000 0  700000 1300000 0  750000 1300000 0  800000 1300000 0  850000 1300000 0  900000 1300000 0  950000 1300000 0  1000000 1300000 0  0 1350000 0  50000 1350000 0  100000 1350000 0  150000 1350000 0  200000 1350000 0  250000 1350000 0  300000 1350000 0  350000 1350000 0  400000 1350000 0  450000 1350000 0  500000 1350000 0  550000 1350000 0  600000 1350000 0  650000 1350000 0  700000 135
[...]
<PointData  Scalars="f_8989"> 
<DataArray  type="Float64"  Name="f_8989"  format="ascii">-4.8335126191925087e-01  -4.1192126077259417e-01  -3.4357266680923171e-01  -2.8069415263770181e-01  -2.2472321637796133e-01  -1.7497801377317834e-01  -1.3038076381459360e-01  -8.9810641907145175e-02  -5.2191473275157121e-02  -1.6507216772033814e-02  1.8208437332109740e-02  5.2892434655455865e-02  8.8475539802810296e-02  1.2590345308565112e-01  1.6614999706610359e-01  2.1021199931647086e-01  2.5906446995216820e-01  3.1352279035919234e-01  3.7379900671020277e-01  4.3766655578952957e-01  4.8532870587924171e-01  -4.3508797798106813e-01  -4.0398670202869896e-01  -3.4098563070001825e-01  -2.7949403791079375e-01  -2.2402712267487845e-01  -1.7453301030892832e-01  -1.3008255751422956e-01  -8.9600485312102338e-02  -5.2031126240615386e-02  -1.6370718403986927e-02  1.8338423460209696e-02  5.3026737048176856e-02  8.8620085321483411e-02  1.2606085619010735e-01  1.6632079045620779e-01  2.1039027412001213e-01  2.5919694886743050e-01  3.1328535050095119e-01  3.7163282420429405e-01  4.2740858015045546e-01  4.5503359378287961e-01  -3.7785764054265092e-01  -3.6385723764100286e-01  -3.2005688188483411e-01  -2.6809842828410507e-01  -2.1736036795699346e-01  -1.7043413291269313e-01  -1.2750296187815474e-01  -8.7983180524210641e-02  -5.1061761748250875e-02  -1.5873402138604185e-02  1.8446350567022009e-02  5.2752105870720233e-02  8.7893461685149818e-02  1.2471728943392867e-01  1.6404907155304513e-01  2.0661548218889503e-01  2.5281291311959680e-01  3.0207654597544115e-01  3.5127582084085979e-01  3.9121431444201255e-01  4.0257366284505797e-01  -3.2381843798466448e-01  -3.1641651801133897e-01  -2.8699353176176645e-01  -2.4667106472515948e-01  -2.0355051477119621e-01  -1.6145296251087765e-01  -1.2165154458360246e-01  -8.4242440399367777e-02  -4.8823924130469001e-02  -1.4793396999040656e-02  1.8526490539409694e-02  5.1834328952388181e-02  8.5822214097873245e-02  1.2114511594160396e-01  1.5835767671761808e-01  1.9776975182674197e-01  2.3912822906822215e-01  2.8096298036041795e-01  3.1941142834690966e-01  3.4675920694925938e-01  3.5227583032596665e-01  -2.7447524350731162e-01  -2.7002442297166390e-01  -2.4988107994892372e-01  -2.1949671115418085e-01  -1.8444206132257018e-01  -1.4826292996178803e-01  -1.1269849430717419e-01  -7.8360827302534825e-02  -4.5256116188000080e-02  -1.3088358161366448e-02  1.8578528315319788e-02  5.0232218105499805e-02  8.2353048965328621e-02  1.1535302870714734e-01  1.4948167706859308e-01  1.8465833809850810e-01  2.2017722312688898e-01  2.5423870206597932e-01  2.8337223417831103e-01  3.0223942526844810e-01  3.0540358530451789e-01  -2.3022206873836865e-01  -2.2733287855447945e-01  -2.1321767813314935e-01  -1.9047354307129780e-01  -1.6261179097980077e-01  -1.3238637338753531e-01  -1.0149743397200288e-01  -7.0799029667144339e-02  -4.0592202319578601e-02  -1.0854840864070774e-02  1.8605399924178499e-02  4.8050392329552369e-02  7.7735026198412577e-02  1.0782992574346839e-01  1.3831963759715263e-01  1.6885287141593969e-01  1.9852916980737181e-01  2.2564321594477338e-01  2.4751579240103017e-01  2.6076826468432257e-01  2.6276360261019333e-01  -1.9114305905086035e-01  -1.8919782717426445e-01  -1.7914699021540231e-01  -1.6211680910006329e-01  -1.4021319408936248e-01  -1.1539861244619699e-01  -8.9106697940158117e-02  -6.2225299387937430e-02  -3.5218453035961987e-02  -8.2673994126639394e-03  1.8611279579118418e-02  4.5473188746237576e-02  7.2368146175543838e-02  9.9262406417580246e-02  1.2594779307402523e-01  1.5192958405240123e-01  1.7629967333987787e-01  1.9763615821131506e-01  2.1403539951387190e-01  2.2347121383403598e-01  2.2477225943464391e-01  -1.5714588937453461e-01  -1.5582375304927951e-01  -1.4861599136337927e-01  -1.3585220591237798e-01  -1.1872759841713895e-01  -9.8568283982950214e-02  -7.6492935249540442e-02  -5.3312249977617722e-02  -2.9551870063527871e-02  -5.5227145481222557e-03  1.8600593935441081e-02  4.2706684956554504e-02  6.6679852058157449e-02  9.0333106402626068e-02  1.1333764127147375e-01  1.3515022578684732e-01  1.5495304254208508e-01  1.7164316078502601e-01  1.8393887896152267e-01  1.9069436303120596e-01  1.9153664792491781e-01  -1.2802996575776082e-01  -1.2714185869436653e-01  -1.2197928918789973e-01  -1.1241840680003305e-01  -9.9069844070245355e-02  -8.2789505725098189e-02  -6.4411368228981317e-02  -4.4627985424889133e-02  -2.3964436240084153e-02  -2.8019585306615141e-03  1.8577456145083725e-02  3.9940265832876833e-02  6.1049911027363526e-02  8.1616072468830445e-02  1.0124631151487468e-01  1.1940616362199996e-01  1.3540245208978252e-01  1.4841661080210630e-01  1.5762557421686987e-01  1.6244938409766080e-01  1.6297205009181392e-01  -1.0353742855436521e-01  -1.0296129335235235e-01  -9.9295934769827315e-02  -9.2149759771014889e-02  -8.1756109341606986e-02  -6.8636450217006942e-02  -5.3394213848257308e-02  -3.6601104608584345e-02  -1.8750294784897346e-02  -2.5232078091957379e-04  1.8545401782490010e-02  3.7327962955694634e-02  5.5778474729945300e-02  7.3544227640103085e-02  9.0208085473504548e-02  1.0527246329638766e-01  1.1816807975008495e-01  1.2830496662242494e-01  1.3518548496398256e-01  1.3859505739096725e-01  1.3889014634198507e-01  -8.3390811357469327e-02  -8.3042581598450085e-02  -8.0480553465502744e-02  -7.5151930135239797e-02  -6.7044720119418783e-02  -5.6447132921839227e-02  -4.3786501149284431e-02  -2.9528177188223814e-02  -1.4121980929522155e-02  2.0172434317511511e-03  1.8507297329926807e-02  3.4984208440695080e-02  5.1082778782506048e-02  6.6417637398564100e-02  8.0570344102265823e-02  9.3089540597703399e-02  1.0351343084225681e-01  1.1142566705313832e-01  1.1655497955732221e-01  1.1892450199565024e-01  1.1905738530097536e-01  -6.7320191031525728e-02  -6.7139100987297348e-02  -6.5385267843509343e-02  -6.1408714440387355e-02  -5.5037671377882590e-02  -4.6400136674948092e-02  -3.5794192921845581e-02  -2.3599225999423570e-02  -1.0221740880049070e-02  3.9320986440122257e-03  1.8465337767208229e-02  3.2987814399388297e-02  4.7108651522042827e-02  6.0429118823140678e-02  7.2541302967880542e-02  8.3038664285795399e-02  9.1545420062152341e-02  9.7771949550299705e-02  1.0160198159747875e-01  1.0321362857196949e-01  1.0323309679482177e-01  -5.5082618584483302e-02  -5.5022920597600250e-02  -5.3847021480787557e-02  -5.0847538493649772e-02  -4.5749929286175828e-02  -3.8574694379612896e-02  -2.9528828801425384e-02  -1.8926846238990526e-02  -7.1381029876118130e-03  5.4446409390479554e-03  1.8421099205599950e-02  3.1389381457493204e-02  4.3947208930249948e-02  5.5693381951314964e-02  6.6234430001286426e-02  7.5201580171945948e-02  8.2283361658735926e-02  8.7278871745794920e-02  9.0175383970671832e-02  9.1250851686385984e-02  9.1194885239509221e-02  -4.6475928352499890e-02  -4.6501752886455500e-02  -4.5716295728743209e-02  -4.3380174514083464e-02  -3.9155531480769161e-02  -3.2994311546593776e-02  -2.5043317145045371e-02  -1.5572109574184690e-02  -4.9221275154891367e-03  6.5266253970779715e-03  1.8375630922943795e-02  3.0219151002970474e-02  4.1651256050901239e-02  5.2273007892296837e-02  6.1704195622151806e-02  6.9604029584403718e-02  7.5705106175135956e-02  7.9864544724936676e-02  8.2135113314209640e-02  8.2856353079037978e-02  8.2755854808922114e-02  -4.1348325006155331e-02  -4.1430188493984312e-02  -4.0874932021583668e-02  -3.8928116048780041e-02  -3.5217521265938585e-02  -2.9656747065990387e-02  -2.2358128828650022e-02  -1.3564733001664504e-02  -3.6007508196071146e-03  7.1626441897460662e-03  1.8329573516679888e-02  2.9493752693376108e-02  4.0248821070424268e-02  5.0198744714675517e-02  5.8972322337540496e-02  6.6245759401957843e-02  7.1777100859193338e-02  7.5455927043707266e-02  7.7370857575453145e-02  7.7894785808756056e-02  7.7776278320782988e-02  -3.9604628649394007e-02  -3.9716834024240887e-02  -3.9246940006108795e-02  -3.7437909050823455e-02  -3.3906469442486049e-02  -2.8553242580460356e-02  -2.1478778962329147e-02  -1.2917060908090994e-02  -3.1863271559433065e-03  7.3453832820817248e-03  1.8283291026468061e-02  2.9221198770854297e-02  3.9752909208880076e-02  4.9483642961028841e-02  5.8045361015268165e-02  6.5119824633401005e-02  7.0473051495428304e-02  7.4004491103767264e-02  7.5813522059053423e-02  7.6283416077185806e-02  7.6171210702339121e-02  -4.1209696267837527e-02  -4.1328203755810602e-02  -4.0804275522508177e-02  -3.8889344990763269e-02  -3.5210518806250687e-02  -2.9679177349017139e-02  -2.2405740284601114e-02  -1.3632162661737520e-02  -3.6822390174877078e-03  7.0728293595598386e-03  1.8237008536256115e-02  2.9403937863190066e-02  4.0167332872543600e-02  5.0131315054601507e-02  5.8924710881588307e-02  6.6223329118930196e-02  7.1784103318880424e-02  7.5494698101723143e-02  7.7441514074528331e-02  7.7996770546929536e-02  7.7914907059100785e-02  -4.6189272755976514e-02  -4.6289771026092427e-02  -4.5568531261264492e-02  -4.3297962671992304e-02  -3.9138524122193270e-02  -3.3037447531463218e-02  -2.5137613569212739e-02  -1.5706425839359304e-02  -5.0846739979648770e-03  6.3474310499653788e-03  1.8190951129991875e-02  3.0039956655857715e-02  4.1488709568424952e-02  5.2138691627121155e-02  6.1609899197983445e-02  6.9560893599533449e-02  7.5722113533710528e-02  7.9946756567025989e-02  8.2282877781687913e-02  8.3068334939401439e-02  8.3042510405445719e-02  -5.4628303186562421e-02  -5.4684269633438989e-02  -5.3608801917725650e-02  -5.0712289692849646e-02  -4.5716779605792644e-02  -3.8634998119005101e-02  -2.9667847948347287e-02  -1.9126799898377737e-02  -7.3806268773138435e-03  5.1772005954420905e-03  1.8145482847335127e-02  3.1121941113887178e-02  4.3704685040547073e-02  5.5493428291926022e-02  6.6095410854362421e-02  7.5141276432551696e-02  8.2316511339117146e-02  8.7414120546592464e-02  9.0413603533731332e-02  9.1589502650544427e-02  9.1649200637427625e-02  -6.6666514741874544e-02  -6.6647046519022549e-02  -6.5035399544532302e-02  -6.1205367497354765e-02  -5.4978838009209073e-02  -4.6472082232854595e-02  -3.5974720914941700e-02  -2.3862536770203783e-02  -1.0542069469107410e-02  3.5787676535459956e-03  1.8101244285725696e-02  3.2634483408921715e-02  4.6788322932983253e-02  6.0165808052357751e-02  7.2360774974781342e-02  8.2966718727885441e-02  9.1604253430822916e-02  9.7975296493328812e-02  1.0195184989645135e-01  1.0370568304023967e-01  1.0388677308446835e-01  -8.2490803248026809e-02  -8.2357919942701946e-02  -7.9988397504374920e-02  -7.4859085000193004e-02  -6.6946848789312785e-02  -5.6522958544761380e-02  -4.4003762049326413e-02  -2.9851055345627396e-02  -1.4516196729570861e-02  1.5823736122387144e-03  1.8059284723006268e-02  3.4549338621181792e-02  5.0688562982455394e-02  6.6094759241158110e-02  8.0353083202220468e-02  9.3013714974776923e-02  1.0361130217235798e-01  1.1171851218818024e-01  1.1704713551844466e-01  1.1960916365139214e-01  1.1995739341041134e-01  -1.0232356428903466e-01  -1.0202847533801795e-01  -9.8618902911033965e-02  -9.1738384569478762e-02  -8.1601497697140285e-02  -6.8705881243445413e-02  -5.3641503420564750e-02  -3.6977645587166430e-02  -1.9211892677010522e-02  -7.6138090276090865e-04  1.8021180270442763e-02  3.6818902833852342e-02  5.5316876837830438e-02  7.3167686661518919e-02  8.9960795901193796e-02  1.0520303226994479e-01  1.1832269139454585e-01  1.2871634182395486e-01  1.3586251682276854e-01  1.3952787540529402e-01  1.4010401060730632e-01  -1.2640546803886271e-01  -1.2588280204471039e-01  -1.2105899216392006e-01  -1.1185002874915866e-01  -9.8835870036837678e-02  -8.2839581569057519e-02  -6.4679729461935023e-02  -4.5049490415893081e-02  -2.4483328974428134e-02  -3.3736837799430066e-03  1.7989125907849055e-02  3.9368540583594583e-02  6.0531018293017630e-02  8.1194567477823984e-02  1.0097795028191761e-01  1.1935608777803559e-01  1.3563642612318413e-01  1.4898498885297318e-01  1.5854587124084082e-01  1.6370844074730881e-01  1.6459654781070329e-01  -1.5497006587196491e-01  -1.5412778097825269e-01  -1.4737229690857115e-01  -1.3507657873207743e-01  -1.1838646048913912e-01  -9.8583643733903492e-02  -7.6771059218532930e-02  -5.3766524349687657e-02  -3.0113270005221557e-02  -6.1401029036202703e-03  1.7965988117492053e-02  4.2089296601055488e-02  6.6118452116461487e-02  8.9878832030552441e-02  1.1305951730247624e-01  1.3513486603588762e-01  1.5529418047007840e-01  1.7241878796531862e-01  1.8518257341632105e-01  1.9239033510222286e-01  1.9371247142747852e-01  -1.8820567738168936e-01  -1.8690463178108171e-01  -1.7746881746092030e-01  -1.6106957615836573e-01  -1.3973309128692971e-01  -1.1536300199945575e-01  -8.9381211021082235e-02  -6.2695824364639705e-02  -3.5801564122605718e-02  -8.9066066933016635e-03  1.7955302473816118e-02  4.4833981465598381e-02  7.1785035088896595e-02  9.8791881440872531e-02  1.2567327999309444e-01  1.5196519449913534e-01  1.7677977614230392e-01  1.9868339115300679e-01  2.1571357226834686e-01  2.2576440922721042e-01  2.2770964110380659e-01  -2.2619702055723556e-01  -2.2420168263136558e-01  -2.1094921034807471e-01  -1.8907663389182094e-01  -1.6196258775442135e-01  -1.3228628936299297e-01  -1.0175305554420781e-01  -7.1263343690525227e-02  -4.1168444145472043e-02  -1.1483810276614343e-02  1.7961182128758222e-02  4.7421422917007586e-02  7.7158784372515735e-02  1.0736561172008180e-01  1.3806401602494150e-01  1.6895295544047698e-01  1.9917837303274538e-01  2.2704012512424460e-01  2.4978426018609645e-01  2.6389946060742880e-01  2.6678865079131853e-01  -2.6883700325155629e-01  -2.6567284321548679e-01  -2.4680565212535044e-01  -2.1767212001302269e-01  -1.8361064107393507e-01  -1.4809175604555816e-01  -1.1291509501564521e-01  -7.8786446654201481e-02  -4.5786466912385436e-02  -1.3665636052558810e-02  1.7988053737619844e-02  4.9654940214306019e-02  8.1822698240939781e-02  1.1492740935547519e-01  1.4926507636011671e-01  1.8482951201473402e-01  2.2100864337551770e-01  2.5606329320713106e-01  2.8644766200187632e-01  3.0659100502461784e-01  3.1104182556026588e-01  -3.1570924827300045e-01  -3.1019262489629351e-01  -2.8284484629394663e-01  -2.4439639830745821e-01  -2.0256164701526558e-01  -1.6120316977378815e-01  -1.2179109466466605e-01  -8.4578533888655313e-02  -4.9255632044926848e-02  -1.5267746899444004e-02  1.8040091513533144e-02  5.1359979051983431e-02  8.5390506183411777e-02  1.2080902245231177e-01  1.5821812663654966e-01  1.9801954456382809e-01  2.4011709682414889e-01  2.8323764677811353e-01  3.2356011381472316e-01  3.5298310006429751e-01  3.6038502003762335e-01  -3.6600708079208810e-01  -3.5464773238904118e-01  -3.1470923878789403e-01  -2.6550996392247872e-01  -2.1624633106663843e-01  -1.7004890013593835e-01  -1.2748248950009058e-01  -8.8150707380976856e-02  -5.1326879632201075e-02  -1.6185523817773193e-02  1.8120231485924228e-02  5.2439984191550201e-02  8.7628343801197217e-02  1.2454976257715758e-01  1.6406954393110476e-01  2.0700071496564640e-01  2.5392695000994947e-01  3.0466501033706306e-01  3.5662346393779448e-01  4.0042381969396401e-01  4.1442422259561529e-01  -4.1846701172991019e-01  -3.9084199809748643e-01  -3.3506624215133080e-01  -2.7671876844798926e-01  -2.2263036681447063e-01  -1.7382369206705425e-01  -1.2975420840325144e-01  -8.9494274137153704e-02  -5.2053503268531899e-02  -1.6460154995227152e-02  1.8228158592738901e-02  5.2937300456935607e-02  8.8597708293564628e-02  1.2616706736505270e-01  1.6664913956718222e-01  2.1109959236188242e-01  2.6059370472783655e-01  3.1606061996375462e-01  3.7755221275298301e-01  4.4055328408166361e-01  4.7165456003403378e-01  -4.4876212382627179e-01  -4.0109997373655981e-01  -3.3723242465723735e-01  -2.7695620830622919e-01  -2.2249788789920744e-01  -1.7364541726351240e-01  -1.2958341501314663e-01  -8.9336871032696996e-02  -5.1908957749858015e-02  -1.6325852602505370e-02  1.8358144720839697e-02  5.3073798824982817e-02  8.8758055328107155e-02  1.2637722396009626e-01  1.6694734586754678e-01  2.1154459582613303e-01  2.6128979843092026e-01  3.1726073469066407e-01  3.8013924886219558e-01  4.4848784282556020e-01  5.1991784397221841e-01  </DataArray> 
</PointData> 
</Piece>
</UnstructuredGrid>
</VTKFile>