<?xml version="1.0"?>
<VTKFile type="UnstructuredGrid"  version="0.1"  >
<UnstructuredGrid>
<Piece  NumberOfPoints="651" NumberOfCells="1200">
<Points>
<DataArray  type="Float64"  NumberOfComponents="3"  format="ascii">0 0 0  50000 0 0  100000 0 0  150000 0 0  200000 0 0  250000 0 0  300000 0 0  350000 0 0  400000 0 0  450000 0 0  500000 0 0  550000 0 0  600000 0 0  650000 0 0  700000 0 0  750000 0 0  800000 0 0  850000 0 0  900000 0 0  950000 0 0  1000000 0 0  0 50000 0  50000 50000 0  100000 50000 0  150000 50000 0  200000 50000 0  250000 50000 0  300000 50000 0  350000 50000 0  400000 50000 0  450000 50000 0  500000 50000 0  550000 50000 0  600000 50000 0  650000 50000 0  700000 50000 0  750000 50000 0  800000 50000 0  850000 50000 0  900000 50000 0  950000 50000 0  1000000 50000 0  0 100000 0  50000 100000 0  100000 100000 0  150000 100000 0  200000 100000 0  250000 100000 0  300000 100000 0  350000 100000 0  400000 100000 0  450000 100000 0  500000 100000 0  550000 100000 0  600000 100000 0  650000 100000 0  700000 100000 0  750000 100000 0  800000 100000 0  850000 100000 0  900000 100000 0  950000 100000 0  1000000 100000 0  0 150000 0  50000 150000 0  100000 150000 0  150000 150000 0  200000 150000 0  250000 150000 0  300000 150000 0  350000 150000 0  400000 150000 0  450000 150000 0  500000 150000 0  550000 150000 0  600000 150000 0  650000 150000 0  700000 150000 0  750000 150000 0  800000 150000 0  850000 150000 0  900000 150000 0  950000 150000 0  1000000 150000 0  0 200000 0  50000 200000 0  100000 200000 0  150000 200000 0  200000 200000 0  250000 200000 0  300000 200000 0  350000 200000 0  400000 200000 0  450000 200000 0  500000 200000 0  550000 200000 0  600000 200000 0  650000 200000 0  700000 200000 0  750000 200000 0  800000 200000 0  850000 200000 0  900000 200000 0  950000 200000 0  1000000 200000 0  0 250000 0  50000 250000 0  100000 250000 0  150000 250000 0  200000 250000 0  250000 250000 0  300000 250000 0  350000 250000 0  400000 250000 0  450000 250000 0  500000 250000 0  550000 250000 0  600000 250000 0  650000 250000 0  700000 250000 0  750000 250000 0  800000 250000 0  850000 250000 0  900000 250000 0  950000 250000 0  1000000 250000 0  0 300000 0  50000 300000 0  100000 300000 0  150000 300000 0  200000 300000 0  250000 300000 0  300000 300000 0  350000 300000 0  400000 300000 0  450000 300000 0  500000 300000 0  550000 300000 0  600000 300000 0  650000 300000 0  700000 300000 0  750000 300000 0  800000 300000 0  850000 300000 0  900000 300000 0  950000 300000 0  1000000 300000 0  0 350000 0  50000 350000 0  100000 350000 0  150000 350000 0  200000 350000 0  250000 350000 0  300000 350000 0  350000 350000 0  400000 350000 0  450000 350000 0  500000 350000 0  550000 350000 0  600000 350000 0  650000 350000 0  700000 350000 0  750000 350000 0  800000 350000 0  850000 350000 0  900000 350000 0  950000 350000 0  1000000 350000 0  0 400000 0  50000 400000 0  100000 400000 0  150000 400000 0  200000 400000 0  250000 400000 0  300000 400000 0  350000 400000 0  400000 400000 0  450000 400000 0  500000 400000 0  550000 400000 0  600000 400000 0  650000 400000 0  700000 400000 0  750000 400000 0  800000 400000 0  850000 400000 0  900000 400000 0  950000 400000 0  1000000 400000 0  0 450000 0  50000 450000 0  100000 450000 0  150000 450000 0  200000 450000 0  250000 450000 0  300000 450000 0  350000 450000 0  400000 450000 0  450000 450000 0  500000 450000 0  550000 450000 0  600000 450000 0  650000 450000 0  700000 450000 0  750000 450000 0  800000 450000 0  850000 450000 0  900000 450000 0  950000 450000 0  1000000 450000 0  0 500000 0  50000 500000 0  100000 500000 0  150000 500000 0  200000 500000 0  250000 500000 0  300000 500000 0  350000 500000 0  400000 500000 0  450000 500000 0  500000 500000 0  550000 500000 0  600000 500000 0  650000 500000 0  700000 500000 0  750000 500000 0  800000 500000 0  850000 500000 0  900000 500000 0  950000 500000 0  1000000 500000 0  0 550000 0  50000 550000 0  100000 550000 0  150000 550000 0  200000 550000 0  250000 550000 0  300000 550000 0  350000 550000 0  400000 550000 0  450000 550000 0  500000 550000 0  550000 550000 0  600000 550000 0  650000 550000 0  700000 550000 0  750000 550000 0  800000 550000 0  850000 550000 0  900000 550000 0  950000 550000 0  1000000 550000 0  0 600000 0  50000 600000 0  100000 600000 0  150000 600000 0  200000 600000 0  250000 600000 0  300000 600000 0  350000 600000 0  400000 600000 0  450000 600000 0  500000 600000 0  550000 600000 0  600000 600000 0  650000 600000 0  700000 600000 0  750000 600000 0  800000 600000 0  850000 600000 0  900000 600000 0  950000 600000 0  1000000 600000 0  0 650000 0  50000 650000 0  100000 650000 0  150000 650000 0  200000 650000 0  250000 650000 0  300000 650000 0  350000 650000 0  400000 650000 0  450000 650000 0  500000 650000 0  550000 650000 0  600000 650000 0  650000 650000 0  700000 650000 0  750000 650000 0  800000 650000 0  850000 650000 0  900000 650000 0  950000 650000 0  1000000 650000 0  0 700000 0  50000 700000 0  100000 700000 0  150000 700000 0  200000 700000 0  250000 700000 0  300000 700000 0  350000 700000 0  400000 700000 0  450000 700000 0  500000 700000 0  550000 700000 0  600000 700000 0  650000 700000 0  700000 700000 0  750000 700000 0  800000 700000 0  850000 700000 0  900000 700000 0  950000 700000 0  1000000 700000 0  0 750000 0  50000 750000 0  100000 750000 0  150000 750000 0  200000 750000 0  250000 750000 0  300000 750000 0  350000 750000 0  400000 750000 0  450000 750000 0  500000 750000 0  550000 750000 0  600000 750000 0  650000 750000 0  700000 750000 0  750000 750000 0  800000 750000 0  850000 750000 0  900000 750000 0  950000 750000 0  1000000 750000 0  0 800000 0  50000 800000 0  100000 800000 0  150000 800000 0  200000 800000 0  250000 800000 0  300000 800000 0  350000 800000 0  400000 800000 0  450000 800000 0  500000 800000 0  550000 800000 0  600000 800000 0  650000 800000 0  700000 800000 0  750000 800000 0  800000 800000 0  850000 800000 0  900000 800000 0  950000 800000 0  1000000 800000 0  0 850000 0  50000 850000 0  100000 850000 0  150000 850000 0  200000 850000 0  250000 850000 0  300000 850000 0  350000 850000 0  400000 850000 0  450000 850000 0  500000 850000 0  550000 850000 0  600000 850000 0  650000 850000 0  700000 850000 0  750000 850000 0  800000 850000 0  850000 850000 0  900000 850000 0  950000 850000 0  1000000 850000 0  0 900000 0  50000 900000 0  100000 900000 0  150000 900000 0  200000 900000 0  250000 900000 0  300000 900000 0  350000 900000 0  400000 900000 0  450000 900000 0  500000 900000 0  550000 900000 0  600000 900000 0  650000 900000 0  700000 900000 0  750000 900000 0  800000 900000 0  850000 900000 0  900000 900000 0  950000 900000 0  1000000 900000 0  0 950000 0  50000 950000 0  100000 950000 0  150000 950000 0  200000 950000 0  250000 950000 0  300000 950000 0  350000 950000 0  400000 950000 0  450000 950000 0  500000 950000 0  550000 950000 0  600000 950000 0  650000 950000 0  700000 950000 0  750000 950000 0  800000 950000 0  850000 950000 0  900000 950000 0  950000 950000 0  1000000 950000 0  0 1000000 0  50000 1000000 0  100000 1000000 0  150000 1000000 0  200000 1000000 0  250000 1000000 0  300000 1000000 0  350000 1000000 0  400000 1000000 0  450000 1000000 0  500000 1000000 0  550000 1000000 0  600000 1000000 0  650000 1000000 0  700000 1000000 0  750000 1000000 0  800000 1000000 0  850000 1000000 0  900000 1000000 0  950000 1000000 0  1000000 1000000 0  0 1050000 0  50000 1050000 0  100000 1050000 0  150000 1050000 0  200000 1050000 0  250000 1050000 0  300000 1050000 0  350000 1050000 0  400000 1050000 0  450000 1050000 0  500000 1050000 0  550000 1050000 0  600000 1050000 0  650000 1050000 0  700000 1050000 0  750000 1050000 0  800000 1050000 0  850000 1050000 0  900000 1050000 0  950000 1050000 0  1000000 1050000 0  0 1100000 0  50000 1100000 0  100000 1100000 0  150000 1100000 0  200000 1100000 0  250000 1100000 0  300000 1100000 0  350000 1100000 0  400000 1100000 0  450000 1100000 0  500000 1100000 0  550000 1100000 0  600000 1100000 0  650000 1100000 0  700000 1100000 0  750000 1100000 0  800000 1100000 0  850000 1100000 0  900000 1100000 0  950000 1100000 0  1000000 1100000 0  0 1150000 0  50000 1150000 0  100000 1150000 0  150000 1150000 0  200000 1150000 0  250000 1150000 0  300000 1150000 0  350000 1150000 0  400000 1150000 0  450000 1150000 0  500000 1150000 0  550000 1150000 0  600000 1150000 0  650000 1150000 0  700000 1150000 0  750000 1150000 0  800000 1150000 0  850000 1150000 0  900000 1150000 0  950000 1150000 0  1000000 1150000 0  0 1200000 0  50000 1200000 0  100000 1200000 0  150000 1200000 0  200000 1200000 0  250000 1200000 0  300000 1200000 0  350000 1200000 0  400000 1200000 0  450000 1200000 0  500000 1200000 0  550000 1200000 0  600000 1200000 0  650000 1200000 0  700000 1200000 0  750000 1200000 0  800000 1200000 0  850000 1200000 0  900000 1200000 0  950000 1200000 0  1000000 1200000 0  0 1250000 0  50000 1250000 0  100000 1250000 0  150000 1250000 0  200000 1250000 0  250000 1250000 0  300000 1250000 0  350000 1250000 0  400000 1250000 0  450000 1250000 0  500000 1250000 0  550000 1250000 0  600000 1250000 0  650000 1250000 0  700000 1250000 0  750000 1250000 0  800000 1250000 0  850000 1250000 0  900000 1250000 0  950000 1250000 0  1000000 1250000 0  0 1300000 0  50000 1300000 0  100000 1300000 0  150000 1300000 0  200000 1300000 0  250000 1300000 0  300000 1300000 0  350000 1300000 0  400000 1300000 0  450000 1300000 0  500000 1300000 0  550000 1300000 0  600000 1300000 0  650000 1300000 0  700000 1300000 0  750000 1300000 0  800000 1300000 0  850000 1300000 0  900000 1300000 0  950000 1300000 0  1000000 1300000 0  0 1350000 0  50000 1350000 0  100000 1350000 0  150000 1350000 0  200000 1350000 0  250000 1350000 0  300000 1350000 0  350000 1350000 0  400000 1350000 0  450000 1350000 0  500000 1350000 0  550000 1350000 0  600000 1350000 0  650000 1350000 0  700000 135
[...]
<PointData  Scalars="f_8989"> 
<DataArray  type="Float64"  Name="f_8989"  format="ascii">-2.5190889670489908e-01  -2.1313787293398365e-01  -1.7605526128878785e-01  -1.4191568490181516e-01  -1.1148631563256331e-01  -8.4396140220260471e-02  -6.0063763195338876e-02  -3.7886697712363741e-02  -1.7287850090141142e-02  2.2766648961074264e-03  2.1323480178189119e-02  4.0353196150541837e-02  5.9863069214188672e-02  8.0358590585098325e-02  1.0236085787151269e-01  1.2640425329770474e-01  1.5301311881174337e-01  1.8262921397813500e-01  2.1537597234528658e-01  2.5007015244314107e-01  2.7599099681004685e-01  -2.2568253449425169e-01  -2.0878070697145920e-01  -1.7461686153774630e-01  -1.4124026998061631e-01  -1.1109077556403553e-01  -8.4141025829780627e-02  -5.9891488954195923e-02  -3.7765000181985767e-02  -1.7195868988399175e-02  2.3530077262356925e-03  2.1393532782917231e-02  4.0422749376870203e-02  5.9935223708026751e-02  8.0434581280850903e-02  1.0244062181743477e-01  1.2648382789472762e-01  1.5306191030022900e-01  1.8246772814759729e-01  2.1415148680809282e-01  2.4443084369874576e-01  2.5948932818056969e-01  -1.9458626805930559e-01  -1.8696613618430913e-01  -1.6320660458402900e-01  -1.3500501826419509e-01  -1.0742726367556092e-01  -8.1877360387909229e-02  -5.8459129664502889e-02  -3.6862287853038911e-02  -1.6652831187589159e-02  2.6313257227194619e-03  2.1451695658530560e-02  4.0264415908619462e-02  5.9522914414949391e-02  7.9679207153408732e-02  1.0117389939100957e-01  1.2439449248296605e-01  1.4955057888849793e-01  1.7633350676846174e-01  2.0305054608690806e-01  2.2473521767925153e-01  2.3095513039706347e-01  -1.6523637193064281e-01  -1.6120019695961463e-01  -1.4522899864004529e-01  -1.2333203561060166e-01  -9.9886164875550632e-02  -7.6959502652550721e-02  -5.5245474968414983e-02  -3.4801873204143817e-02  -1.5417340325563921e-02  3.2281370106555319e-03  2.1495030190796831e-02  3.9755319138589137e-02  5.8377486250901015e-02  7.7709958221407541e-02  9.8046964601966935e-02  1.1955052849692377e-01  1.4207869667032938e-01  1.6483256300666946e-01  1.8572216288452592e-01  2.0057992061751151e-01  2.0361254193778683e-01  -1.3845105636392507e-01  -1.3601915522475330e-01  -1.2507279881049707e-01  -1.0855666908057165e-01  -8.9480806489690964e-02  -6.9764453096536685e-02  -5.0352606161012593e-02  -3.1581808952136060e-02  -1.3461144400408619e-02  4.1638002682131596e-03  2.1523294388017589e-02  3.8875577628542470e-02  5.6474951617870819e-02  7.4538770362606879e-02  9.3196528349514043e-02  1.1239926096262985e-01  1.3176029218969940e-01  1.5030237860963538e-01  1.6614687561081726e-01  1.7640905446140967e-01  1.7815438004242837e-01  -1.1444320376155183e-01  -1.1286056700374474e-01  -1.0517632720172918e-01  -9.2794261212932744e-02  -7.7612566141388464e-02  -6.1122651776937785e-02  -4.4248056706371830e-02  -2.7455713272738130e-02  -1.0913739952345068e-02  5.3845467799109323e-03  2.1538001129713432e-02  3.7683161858772164e-02  5.3952830612186573e-02  7.0434240525254446e-02  8.7113991334347676e-02  1.0379712442245291e-01  1.1999196159422004e-01  1.3477229480121028e-01  1.4668681305843079e-01  1.5390856826263952e-01  1.5501358348761457e-01  -9.3255803055458386e-02  -9.2186351481604062e-02  -8.6699659739206292e-02  -7.7407117750312199e-02  -6.5448964769079770e-02  -5.1889198157750713e-02  -3.7507056308712337e-02  -2.2787276600276581e-02  -7.9856078951064686e-03  6.7951587950803799e-03  2.1541371846124514e-02  3.6278498416361757e-02  5.1028916585977746e-02  6.5769815845372004e-02  8.0384041972601322e-02  9.4599502824676177e-02  1.0792070535740228e-01  1.1957472849159494e-01  1.2852899427202238e-01  1.3368591021499890e-01  1.3441086790867049e-01  -7.4835248477087599e-02  -7.4104256131131210e-02  -7.0153230823369120e-02  -6.3165647224671842e-02  -5.3791323157415118e-02  -4.2750906066753011e-02  -3.0653288203730353e-02  -1.7941097978293543e-02  -4.9028913845001526e-03  8.2889382441048085e-03  2.1535789242899700e-02  3.4773337801413680e-02  4.7934951471164701e-02  6.0915447214627494e-02  7.3532920350108860e-02  8.5489478830938825e-02  9.6338744531841464e-02  1.0548023392738612e-01  1.1221693183714268e-01  1.1592535946310989e-01  1.1639959845418744e-01  -5.9069029906558171e-02  -5.8573540237853557e-02  -5.5726026985506071e-02  -5.0467360591686009e-02  -4.3133169111332498e-02  -3.4190674177053210e-02  -2.4094917713805921e-02  -1.3224353615105431e-02  -1.8667822246081585e-03  9.7678793264183283e-03  2.1523476120356221e-02  3.3270120610124125e-02  4.4876323039471089e-02  5.6181509154937734e-02  6.6969825125448010e-02  7.6948510378109319e-02  8.5738811097658449e-02  9.2893885041206353e-02  9.7963935636838709e-02  1.0062967350109765e-01  1.0092954446838792e-01  -4.5813811490574070e-02  -4.5487403330550374e-02  -4.3446881285931882e-02  -3.9490562671561140e-02  -3.3751755088816456e-02  -2.6517668367119968e-02  -1.8118864515250046e-02  -8.8682580126633256e-03  9.6397871310588868e-04  1.1152533938940810e-02  2.1506344820538516e-02  3.1851995011694112e-02  4.2015021106060799e-02  5.1801560098747687e-02  6.0982815828162083e-02  6.9286300008116128e-02  7.6400407844227955e-02  8.2001723786163244e-02  8.5815654772938205e-02  8.7718875789956616e-02  8.7894789883565541e-02  -3.4916072595767574e-02  -3.4713049621790920e-02  -3.3266643492358736e-02  -3.0289827347837615e-02  -2.5784686575105929e-02  -1.9913064890792771e-02  -1.2910528952002859e-02  -5.0323739022784149e-03  3.4749641713851397e-03  1.2384223665723114e-02  2.1485945213327490e-02  3.0580601363715758e-02  3.9468018205169951e-02  4.7937065011749776e-02  5.5758591874039989e-02  6.2685370138652552e-02  6.8464008387432246e-02  7.2864761522425700e-02  7.5734740124609318e-02  7.7077780388750822e-02  7.7165458221982411e-02  -2.6226920767454483e-02  -2.6114295327732129e-02  -2.5102717651907684e-02  -2.2854040915913431e-02  -1.9285118085611275e-02  -1.4471818718191523e-02  -8.5800519317454915e-03  -1.8185748975742685e-03  5.5898175422368617e-03  1.3422862429665058e-02  2.1463463273193897e-02  2.9498283710366013e-02  3.7313611964398051e-02  4.4691421018386135e-02  5.1408537354585053e-02  5.7242166961287352e-02  6.1985475377332899e-02  6.5477032921664347e-02  6.7647159815433233e-02  6.8582370350212335e-02  6.8608408207446986e-02  -1.9612640364127385e-02  -1.9565609966641296e-02  -1.8864763416806603e-02  -1.7141969201943087e-02  -1.4259399921849519e-02  -1.0235325579847692e-02  -5.1866095737196673e-03  7.1308585277710611e-04  7.2612082805086535e-03  1.4242973453651490e-02  2.1439750102800272e-02  2.8632138462244935e-02  3.5600535955011878e-02  4.2125836133102855e-02  4.7992891650485613e-02  5.2999473776692688e-02  5.6973541472929524e-02  5.9801453826376735e-02  6.1469039178408458e-02  6.2115933392437518e-02  6.2100987509888156e-02  -1.4962150020161444e-02  -1.4961290058334506e-02  -1.4470261540072787e-02  -1.3104342651295750e-02  -1.0692096947747370e-02  -7.2151102832694316e-03  -2.7578623610894815e-03  2.5302892619479930e-03  8.4619893682010353e-03  1.4829512093726590e-02  2.1415372184294883e-02  2.7998289422928358e-02  3.4356884264842798e-02  4.0273455166424055e-02  4.5540175672617256e-02  4.9970044110838982e-02  5.3414851523509055e-02  5.5792191441805188e-02  5.7122960225844711e-02  5.7579485546934046e-02  5.7540328775701588e-02  -1.2192153606637730e-02  -1.2221511485323168e-02  -1.1854149522429080e-02  -1.0697599217523179e-02  -8.5622164554720534e-03  -5.4090913473405413e-03  -1.3041739704295712e-03  3.6174960647228707e-03  9.1779464400944828e-03  1.5174320871424155e-02  2.1390675475146444e-02  2.7605555054896539e-02  3.3597465164808750e-02  3.9150382764452263e-02  4.4061441539689473e-02  4.8152884149806369e-02  5.1290262346827459e-02  5.3408638456580240e-02  5.4548090332564442e-02  5.4898618488998699e-02  5.4849622278634172e-02  -1.1250480494213122e-02  -1.1296158629426057e-02  -1.0974649514226305e-02  -9.8921743290172025e-03  -7.8532382375949145e-03  -4.8120038644793054e-03  -8.2809325387621434e-04  3.9683590078032046e-03  9.4026174763898913e-03  1.5273553485773370e-02  2.1365856816606389e-02  2.7458160147439341e-02  3.3329096156823175e-02  3.8763354625410425e-02  4.3559806887090456e-02  4.7543717497694399e-02  5.0584951870810926e-02  5.2623887962233926e-02  5.3706363147443405e-02  5.4027872262643210e-02  5.3982194127430376e-02  -1.2117908645416738e-02  -1.2166904855781254e-02  -1.1816376699347158e-02  -1.0676924823363449e-02  -8.5585487136112560e-03  -5.4211705165910923e-03  -1.3297279064749007e-03  3.5813308687615516e-03  9.1342484684042435e-03  1.5126158578316149e-02  2.1341038158066244e-02  2.7557392761788542e-02  3.3553767193118415e-02  3.9114217568490324e-02  4.4035887603643485e-02  4.8140804980555202e-02  5.1293930088687795e-02  5.3429312850739527e-02  5.4585863155646105e-02  5.4953225118540394e-02  5.4923867239855095e-02  -1.4808615142484206e-02  -1.4847771913716622e-02  -1.4391246592627331e-02  -1.3060477808588201e-02  -1.0683137890292835e-02  -7.2383304776237629e-03  -2.8084620394027179e-03  2.4582584667895971e-03  8.3748293683700969e-03  1.4733424210284320e-02  2.1316341448917663e-02  2.7902201539485930e-02  3.4269724265011556e-02  4.0201424371265011e-02  4.5489575994303290e-02  4.9946823916484070e-02  5.3423810580962884e-02  5.5836056284511847e-02  5.7201975173289780e-02  5.7693003691551975e-02  5.7693863653378960e-02  -1.9369273876670142e-02  -1.9384219759219477e-02  -1.8737325545190659e-02  -1.7069740193159426e-02  -1.4241827839713016e-02  -1.0267760143477286e-02  -5.2611780172710804e-03  6.0587750011071640e-04  7.1311776782009657e-03  1.4099575170967504e-02  2.1291963530411972e-02  2.8488740179560788e-02  3.5470505352703671e-02  4.2018627780435393e-02  4.7918323206933025e-02  5.2967039213061867e-02  5.6991113555064893e-02  5.9873682835159280e-02  6.1596477050023239e-02  6.2297323599858151e-02  6.2344353997344330e-02  -2.5876694574228594e-02  -2.5850656716994019e-02  -2.4915446182215209e-02  -2.2745319288446968e-02  -1.9253761744116336e-02  -1.4510453328071951e-02  -8.6768237213705503e-03  -1.9597073851726162e-03  5.4181016688145183e-03  1.3233429922845956e-02  2.1268250360017824e-02  2.9308851203546663e-02  3.7141896090974985e-02  4.4550288530786304e-02  5.1311765564958159e-02  5.7203532351405094e-02  6.2016831718826271e-02  6.5585754549129169e-02  6.7834431285123786e-02  6.8846008960948391e-02  6.8958634400670835e-02  -3.4433744588763297e-02  -3.4346066755531861e-02  -3.3003026491390738e-02  -3.0133047889208040e-02  -2.5732294754215273e-02  -1.9953656505436738e-02  -1.3026878240825369e-02  -5.2053513785364457e-03  3.2636954280425706e-03  1.2151112269495952e-02  2.1245768419883834e-02  3.0347489967488157e-02  3.9256749461826328e-02  4.7764087535490482e-02  5.5642242585215704e-02  6.2644778524006489e-02  6.8516400208320602e-02  7.3021540981052985e-02  7.5998357125574859e-02  7.7444763255007057e-02  7.7647786228983759e-02  -4.5163076250345553e-02  -4.4987162156736989e-02  -4.3083941139718959e-02  -3.9270010152945005e-02  -3.3668694211010548e-02  -2.6554586374900088e-02  -1.8251102194947352e-02  -9.0698464655343865e-03  7.1669252715161457e-04  1.0879718621517610e-02  2.1225368812672674e-02  3.1579179694270397e-02  4.1767734920105548e-02  5.1599971645875486e-02  6.0850578148463126e-02  6.9249382000333773e-02  7.6483468722031045e-02  8.2222276304776409e-02  8.6178594919147825e-02  8.8219116963766470e-02  8.8545525123790117e-02  -5.8197830835167427e-02  -5.7897959867877422e-02  -5.5232222003618804e-02  -5.0162171407987531e-02  -4.3007097464440799e-02  -3.4216796744892919e-02  -2.4238111492233184e-02  -1.3449795521724085e-02  -2.1446094062583460e-03  9.4615930230876714e-03  2.1208237512855062e-02  3.2963834306793130e-02  4.4598495857819949e-02  5.5956067248317670e-02  6.6826631347019064e-02  7.6922387810266932e-02  8.5864882744547080e-02  9.3199074224901382e-02  9.8457740618721881e-02  1.0130525387106973e-01  1.0180074353977454e-01  -7.3667884820966076e-02  -7.3193645829888465e-02  -6.9485218203922033e-02  -6.2748520294166832e-02  -5.3607030898623252e-02  -4.2757765197721773e-02  -3.0801206716893466e-02  -1.8183733581413404e-02  -5.2032378379516719e-03  7.9583758317983960e-03  2.1195924390311836e-02  3.4442775389106818e-02  4.7634605017712106e-02  6.0672811611505964e-02  7.3385001836943423e-02  8.5482619699966886e-02  9.6523036790630068e-02  1.0589736085788759e-01  1.1288494445658544e-01  1.1683596976434804e-01  1.1756696211030465e-01  -9.1679154275447983e-02  -9.0954196581776600e-02  -8.5797280638800974e-02  -7.6843014858374734e-02  -6.5188991724183173e-02  -5.1867789191458430e-02  -3.7652328339384936e-02  -2.3038102212156842e-02  -8.2972029527637239e-03  6.4532152168511984e-03  2.1190341787087789e-02  3.5936554838131934e-02  5.0717321528319016e-02  6.5518990233489352e-02  8.0238769941925858e-02  9.4620911790965184e-02  1.0818067840229557e-01  1.2013883138352896e-01  1.2943137337242369e-01  1.3491806511482207e-01  1.3598751668867662e-01  -1.1228186985439045e-01  -1.1117685462941561e-01  -1.0395509942520749e-01  -9.2040581167988522e-02  -7.7260247960999617e-02  -6.1065410789234130e-02  -4.4382277701130082e-02  -2.7702526892037727e-02  -1.1221116978971180e-02  5.0485517744419612e-03  2.1193712503500106e-02  3.7347166853302673e-02  5.3645453585558986e-02  7.0187426905952213e-02  8.6979770339586537e-02  1.0385436541015373e-01  1.2034427977460563e-01  1.3552597484615103e-01  1.4790804083494799e-01  1.5559228063696443e-01  1.5717491739477180e-01  -1.3542266640920200e-01  -1.3367734082818353e-01  -1.2341516197759149e-01  -1.0757066497641135e-01  -8.9028578556477209e-02  -6.9667547329409496e-02  -5.0464814716294853e-02  -3.1807056729388758e-02  -1.3743237984654082e-02  3.8561360046732388e-03  2.1208419245197539e-02  3.8567913365002031e-02  5.6192858033623949e-02  7.4313522585351802e-02  9.3084319794229209e-02  1.1249616672975471e-01  1.3221252012290979e-01  1.5128838271379166e-01  1.6780451244371800e-01  1.7875086885797495e-01  1.8118276999714691e-01  -1.6088082830455830e-01  -1.5784820698428320e-01  -1.4299044925129853e-01  -1.2210084937344369e-01  -9.9346983037105457e-02  -7.6818814863701429e-02  -5.5315250968745795e-02  -3.4978244588187823e-02  -1.5645772617682522e-02  2.9763944946283533e-03  2.1236683442420079e-02  3.9503576622561473e-02  5.8149053958781005e-02  7.7533586837361473e-02  9.7977188601633944e-02  1.1969121628577094e-01  1.4261787850877194e-01  1.6606374924382380e-01  1.8796071227326855e-01  2.0393191059283844e-01  2.0796808556386678e-01  -1.8822341676383311e-01  -1.8200350404602075e-01  -1.6031883245367884e-01  -1.3360179313523399e-01  -1.0681886525527232e-01  -8.1662778849742060e-02  -5.8442185757786709e-02  -3.6947493520187148e-02  -1.6791200781729382e-02  2.4672977245997320e-03  2.1280017974688273e-02  4.0100387910499274e-02  5.9384544820808141e-02  7.9594001486258392e-02  1.0119084329772371e-01  1.2460907402113118e-01  1.5015897730878419e-01  1.7773673189741926e-01  2.0593831821725414e-01  2.2969784981753466e-01  2.3731798169253207e-01  -2.1675761454733861e-01  -2.0169913006551488e-01  -1.7141977317486409e-01  -1.3973601451436921e-01  -1.1033019666700233e-01  -8.3752114261502433e-02  -5.9708908184210790e-02  -3.7702867647628237e-02  -1.7203510074805261e-02  2.3089642563504237e-03  2.1338180850302833e-02  4.0378705906984454e-02  5.9927582621619610e-02  8.0496713815206927e-02  1.0262320258741808e-01  1.2687273946300373e-01  1.5382248919726016e-01  1.8397198361384226e-01  2.1734857517097345e-01  2.5151242060468665e-01  2.6841424812747922e-01  -2.3325928317681549e-01  -2.0733843880990990e-01  -1.7264425871205691e-01  -1.3989750034490631e-01  -1.1028140517851615e-01  -8.3672539664479156e-02  -5.9629144238288342e-02  -3.7626876951875422e-02  -1.7131355580966744e-02  2.3785174826792274e-03  2.1408233455031411e-02  4.0455048737112941e-02  6.0019563723362028e-02  8.0618411345585284e-02  1.0279547682856137e-01  1.2712785385348388e-01  1.5421802926578840e-01  1.8464739853504161e-01  2.1878697492201504e-01  2.5586958656721176e-01  2.9464061033812766e-01  </DataArray> 
</PointData> 
</Piece>
</UnstructuredGrid>
</VTKFile>