<?xml version="1.0"?>
<VTKFile type="UnstructuredGrid"  version="0.1"  >
<UnstructuredGrid>
<Piece  NumberOfPoints="651" NumberOfCells="1200">
<Points>
<DataArray  type="Float64"  NumberOfComponents="3"  format="ascii">0 0 0  50000 0 0  100000 0 0  150000 0 0  200000 0 0  250000 0 0  300000 0 0  350000 0 0  400000 0 0  450000 0 0  500000 0 0  550000 0 0  600000 0 0  650000 0 0  700000 0 0  750000 0 0  800000 0 0  850000 0 0  900000 0 0  950000 0 0  1000000 0 0  0 50000 0  50000 50000 0  100000 50000 0  150000 50000 0  200000 50000 0  250000 50000 0  300000 50000 0  350000 50000 0  400000 50000 0  450000 50000 0  500000 50000 0  550000 50000 0  600000 50000 0  650000 50000 0  700000 50000 0  750000 50000 0  800000 50000 0  850000 50000 0  900000 50000 0  950000 50000 0  1000000 50000 0  0 100000 0  50000 100000 0  100000 100000 0  150000 100000 0  200000 100000 0  250000 100000 0  300000 100000 0  350000 100000 0  400000 100000 0  450000 100000 0  500000 100000 0  550000 100000 0  600000 100000 0  650000 100000 0  700000 100000 0  750000 100000 0  800000 100000 0  850000 100000 0  900000 100000 0  950000 100000 0  1000000 100000 0  0 150000 0  50000 150000 0  100000 150000 0  150000 150000 0  200000 150000 0  250000 150000 0  300000 150000 0  350000 150000 0  400000 150000 0  450000 150000 0  500000 150000 0  550000 150000 0  600000 150000 0  650000 150000 0  700000 150000 0  750000 150000 0  800000 150000 0  850000 150000 0  900000 150000 0  950000 150000 0  1000000 150000 0  0 200000 0  50000 200000 0  100000 200000 0  150000 200000 0  200000 200000 0  250000 200000 0  300000 200000 0  350000 200000 0  400000 200000 0  450000 200000 0  500000 200000 0  550000 200000 0  600000 200000 0  650000 200000 0  700000 200000 0  750000 200000 0  800000 200000 0  850000 200000 0  900000 200000 0  950000 200000 0  1000000 200000 0  0 250000 0  50000 250000 0  100000 250000 0  150000 250000 0  200000 250000 0  250000 250000 0  300000 250000 0  350000 250000 0  400000 250000 0  450000 250000 0  500000 250000 0  550000 250000 0  600000 250000 0  650000 250000 0  700000 250000 0  750000 250000 0  800000 250000 0  850000 250000 0  900000 250000 0  950000 250000 0  1000000 250000 0  0 300000 0  50000 300000 0  100000 300000 0  150000 300000 0  200000 300000 0  250000 300000 0  300000 300000 0  350000 300000 0  400000 300000 0  450000 300000 0  500000 300000 0  550000 300000 0  600000 300000 0  650000 300000 0  700000 300000 0  750000 300000 0  800000 300000 0  850000 300000 0  900000 300000 0  950000 300000 0  1000000 300000 0  0 350000 0  50000 350000 0  100000 350000 0  150000 350000 0  200000 350000 0  250000 350000 0  300000 350000 0  350000 350000 0  400000 350000 0  450000 350000 0  500000 350000 0  550000 350000 0  600000 350000 0  650000 350000 0  700000 350000 0  750000 350000 0  800000 350000 0  850000 350000 0  900000 350000 0  950000 350000 0  1000000 350000 0  0 400000 0  50000 400000 0  100000 400000 0  150000 400000 0  200000 400000 0  250000 400000 0  300000 400000 0  350000 400000 0  400000 400000 0  450000 400000 0  500000 400000 0  550000 400000 0  600000 400000 0  650000 400000 0  700000 400000 0  750000 400000 0  800000 400000 0  850000 400000 0  900000 400000 0  950000 400000 0  1000000 400000 0  0 450000 0  50000 450000 0  100000 450000 0  150000 450000 0  200000 450000 0  250000 450000 0  300000 450000 0  350000 450000 0  400000 450000 0  450000 450000 0  500000 450000 0  550000 450000 0  600000 450000 0  650000 450000 0  700000 450000 0  750000 450000 0  800000 450000 0  850000 450000 0  900000 450000 0  950000 450000 0  1000000 450000 0  0 500000 0  50000 500000 0  100000 500000 0  150000 500000 0  200000 500000 0  250000 500000 0  300000 500000 0  350000 500000 0  400000 500000 0  450000 500000 0  500000 500000 0  550000 500000 0  600000 500000 0  650000 500000 0  700000 500000 0  750000 500000 0  800000 500000 0  850000 500000 0  900000 500000 0  950000 500000 0  1000000 500000 0  0 550000 0  50000 550000 0  100000 550000 0  150000 550000 0  200000 550000 0  250000 550000 0  300000 550000 0  350000 550000 0  400000 550000 0  450000 550000 0  500000 550000 0  550000 550000 0  600000 550000 0  650000 550000 0  700000 550000 0  750000 550000 0  800000 550000 0  850000 550000 0  900000 550000 0  950000 550000 0  1000000 550000 0  0 600000 0  50000 600000 0  100000 600000 0  150000 600000 0  200000 600000 0  250000 600000 0  300000 600000 0  350000 600000 0  400000 600000 0  450000 600000 0  500000 600000 0  550000 600000 0  600000 600000 0  650000 600000 0  700000 600000 0  750000 600000 0  800000 600000 0  850000 600000 0  900000 600000 0  950000 600000 0  1000000 600000 0  0 650000 0  50000 650000 0  100000 650000 0  150000 650000 0  200000 650000 0  250000 650000 0  300000 650000 0  350000 650000 0  400000 650000 0  450000 650000 0  500000 650000 0  550000 650000 0  600000 650000 0  650000 650000 0  700000 650000 0  750000 650000 0  800000 650000 0  850000 650000 0  900000 650000 0  950000 650000 0  1000000 650000 0  0 700000 0  50000 700000 0  100000 700000 0  150000 700000 0  200000 700000 0  250000 700000 0  300000 700000 0  350000 700000 0  400000 700000 0  450000 700000 0  500000 700000 0  550000 700000 0  600000 700000 0  650000 700000 0  700000 700000 0  750000 700000 0  800000 700000 0  850000 700000 0  900000 700000 0  950000 700000 0  1000000 700000 0  0 750000 0  50000 750000 0  100000 750000 0  150000 750000 0  200000 750000 0  250000 750000 0  300000 750000 0  350000 750000 0  400000 750000 0  450000 750000 0  500000 750000 0  550000 750000 0  600000 750000 0  650000 750000 0  700000 750000 0  750000 750000 0  800000 750000 0  850000 750000 0  900000 750000 0  950000 750000 0  1000000 750000 0  0 800000 0  50000 800000 0  100000 800000 0  150000 800000 0  200000 800000 0  250000 800000 0  300000 800000 0  350000 800000 0  400000 800000 0  450000 800000 0  500000 800000 0  550000 800000 0  600000 800000 0  650000 800000 0  700000 800000 0  750000 800000 0  800000 800000 0  850000 800000 0  900000 800000 0  950000 800000 0  1000000 800000 0  0 850000 0  50000 850000 0  100000 850000 0  150000 850000 0  200000 850000 0  250000 850000 0  300000 850000 0  350000 850000 0  400000 850000 0  450000 850000 0  500000 850000 0  550000 850000 0  600000 850000 0  650000 850000 0  700000 850000 0  750000 850000 0  800000 850000 0  850000 850000 0  900000 850000 0  950000 850000 0  1000000 850000 0  0 900000 0  50000 900000 0  100000 900000 0  150000 900000 0  200000 900000 0  250000 900000 0  300000 900000 0  350000 900000 0  400000 900000 0  450000 900000 0  500000 900000 0  550000 900000 0  600000 900000 0  650000 900000 0  700000 900000 0  750000 900000 0  800000 900000 0  850000 900000 0  900000 900000 0  950000 900000 0  1000000 900000 0  0 950000 0  50000 950000 0  100000 950000 0  150000 950000 0  200000 950000 0  250000 950000 0  300000 950000 0  350000 950000 0  400000 950000 0  450000 950000 0  500000 950000 0  550000 950000 0  600000 950000 0  650000 950000 0  700000 950000 0  750000 950000 0  800000 950000 0  850000 950000 0  900000 950000 0  950000 950000 0  1000000 950000 0  0 1000000 0  50000 1000000 0  100000 1000000 0  150000 1000000 0  200000 1000000 0  250000 1000000 0  300000 1000000 0  350000 1000000 0  400000 1000000 0  450000 1000000 0  500000 1000000 0  550000 1000000 0  600000 1000000 0  650000 1000000 0  700000 1000000 0  750000 1000000 0  800000 1000000 0  850000 1000000 0  900000 1000000 0  950000 1000000 0  1000000 1000000 0  0 1050000 0  50000 1050000 0  100000 1050000 0  150000 1050000 0  200000 1050000 0  250000 1050000 0  300000 1050000 0  350000 1050000 0  400000 1050000 0  450000 1050000 0  500000 1050000 0  550000 1050000 0  600000 1050000 0  650000 1050000 0  700000 1050000 0  750000 1050000 0  800000 1050000 0  850000 1050000 0  900000 1050000 0  950000 1050000 0  1000000 1050000 0  0 1100000 0  50000 1100000 0  100000 1100000 0  150000 1100000 0  200000 1100000 0  250000 1100000 0  300000 1100000 0  350000 1100000 0  400000 1100000 0  450000 1100000 0  500000 1100000 0  550000 1100000 0  600000 1100000 0  650000 1100000 0  700000 1100000 0  750000 1100000 0  800000 1100000 0  850000 1100000 0  900000 1100000 0  950000 1100000 0  1000000 1100000 0  0 1150000 0  50000 1150000 0  100000 1150000 0  150000 1150000 0  200000 1150000 0  250000 1150000 0  300000 1150000 0  350000 1150000 0  400000 1150000 0  450000 1150000 0  500000 1150000 0  550000 1150000 0  600000 1150000 0  650000 1150000 0  700000 1150000 0  750000 1150000 0  800000 1150000 0  850000 1150000 0  900000 1150000 0  950000 1150000 0  1000000 1150000 0  0 1200000 0  50000 1200000 0  100000 1200000 0  150000 1200000 0  200000 1200000 0  250000 1200000 0  300000 1200000 0  350000 1200000 0  400000 1200000 0  450000 1200000 0  500000 1200000 0  550000 1200000 0  600000 1200000 0  650000 1200000 0  700000 1200000 0  750000 1200000 0  800000 1200000 0  850000 1200000 0  900000 1200000 0  950000 1200000 0  1000000 1200000 0  0 1250000 0  50000 1250000 0  100000 1250000 0  150000 1250000 0  200000 1250000 0  250000 1250000 0  300000 1250000 0  350000 1250000 0  400000 1250000 0  450000 1250000 0  500000 1250000 0  550000 1250000 0  600000 1250000 0  650000 1250000 0  700000 1250000 0  750000 1250000 0  800000 1250000 0  850000 1250000 0  900000 1250000 0  950000 1250000 0  1000000 1250000 0  0 1300000 0  50000 1300000 0  100000 1300000 0  150000 1300000 0  200000 1300000 0  250000 1300000 0  300000 1300000 0  350000 1300000 0  400000 1300000 0  450000 1300000 0  500000 1300000 0  550000 1300000 0  600000 1300000 0  650000 1300000 0  700000 1300000 0  750000 1300000 0  800000 1300000 0  850000 1300000 0  900000 1300000 0  950000 1300000 0  1000000 1300000 0  0 1350000 0  50000 1350000 0  100000 1350000 0  150000 1350000 0  200000 1350000 0  250000 1350000 0  300000 1350000 0  350000 1350000 0  400000 1350000 0  450000 1350000 0  500000 1350000 0  550000 1350000 0  600000 1350000 0  650000 1350000 0  700000 135
[...]
<PointData  Vectors="f_8983"> 
<DataArray  type="Float64"  Name="f_8983"  NumberOfComponents="3" format="ascii">-2.2084402292355288e-08 -1.1489791865842290e-08 0.0000000000000000e+00  5.3398181845135316e-08 -7.2268976083590989e-09 0.0000000000000000e+00  5.2196599937444823e-08 -2.6411572716514442e-09 0.0000000000000000e+00  5.3868283272805057e-08 -1.1914283147480213e-09 0.0000000000000000e+00  5.6102496934067205e-08 -6.6652606587047123e-10 0.0000000000000000e+00  5.8043828038839443e-08 -4.2346796515940977e-10 0.0000000000000000e+00  5.9561345020369151e-08 -2.9041953221800472e-10 0.0000000000000000e+00  6.0667228180247291e-08 -2.0868588753183266e-10 0.0000000000000000e+00  6.1398666770730114e-08 -1.5434058173229059e-10 0.0000000000000000e+00  6.1788815794257701e-08 -1.1605768235793707e-10 0.0000000000000000e+00  6.1859032653054364e-08 -8.7572819584368923e-11 0.0000000000000000e+00  6.1617752257855560e-08 -6.4508664156263979e-11 0.0000000000000000e+00  6.1062454483794396e-08 -4.2224448267839628e-11 0.0000000000000000e+00  6.0185740953796160e-08 -1.2674386757320543e-11 0.0000000000000000e+00  5.8991830278901356e-08 4.3171373164315437e-11 0.0000000000000000e+00  5.7542751816783215e-08 1.7689166843554244e-10 0.0000000000000000e+00  5.6088632674738864e-08 5.3551162172959291e-10 0.0000000000000000e+00  5.5404049443878970e-08 1.5312421729209837e-09 0.0000000000000000e+00  5.7145040442322735e-08 4.1860935287947852e-09 0.0000000000000000e+00  6.1064162546358104e-08 9.0201818377521897e-09 0.0000000000000000e+00  -1.4588269077313205e-08 6.4704242822630463e-09 0.0000000000000000e+00  -1.6000977817643364e-08 -1.7893559819783053e-08 0.0000000000000000e+00  1.0577855222302590e-08 -1.5502190237540844e-08 0.0000000000000000e+00  2.4498242297544675e-08 -9.4420526654776863e-09 0.0000000000000000e+00  3.2652804367089149e-08 -6.0957632078579762e-09 0.0000000000000000e+00  3.8071795961014038e-08 -4.2050898445804160e-09 0.0000000000000000e+00  4.1894919789972185e-08 -2.9889109703143189e-09 0.0000000000000000e+00  4.4603856777663391e-08 -2.1236561508254540e-09 0.0000000000000000e+00  4.6489451628412561e-08 -1.4632377267872694e-09 0.0000000000000000e+00  4.7733853228946102e-08 -9.2797472494236765e-10 0.0000000000000000e+00  4.8448134027122201e-08 -4.6610003060147291e-10 0.0000000000000000e+00  4.8693071115422735e-08 -3.8500537711721084e-11 0.0000000000000000e+00  4.8489445939263822e-08 3.8938598585093950e-10 0.0000000000000000e+00  4.7821450425973663e-08 8.5392760477651312e-10 0.0000000000000000e+00  4.6634386538653096e-08 1.4010754620425580e-09 0.0000000000000000e+00  4.4825993630795800e-08 2.0997445593613021e-09 0.0000000000000000e+00  4.2227761121916396e-08 3.0693306557881595e-09 0.0000000000000000e+00  3.8562583119367915e-08 4.5387924415820387e-09 0.0000000000000000e+00  3.3320540807703404e-08 6.9570821559670456e-09 0.0000000000000000e+00  2.5299851829809992e-08 1.1050112091824283e-08 0.0000000000000000e+00  1.1325317693799081e-08 1.6953759367208956e-08 0.0000000000000000e+00  -1.5762407932864824e-08 1.1270323924449037e-08 0.0000000000000000e+00  -8.7422933198393767e-09 -2.1835857766618837e-08 0.0000000000000000e+00  8.3706355120327513e-10 -2.4307745673899303e-08 0.0000000000000000e+00  7.9413574127448328e-09 -1.7875832751066990e-08 0.0000000000000000e+00  1.4428776495337096e-08 -1.2589116062991989e-08 0.0000000000000000e+00  1.9890080462233622e-08 -8.8951349562357428e-09 0.0000000000000000e+00  2.4008113698405616e-08 -6.3240980760605377e-09 0.0000000000000000e+00  2.6990492811377866e-08 -4.4600700177374406e-09 0.0000000000000000e+00  2.9079122312399913e-08 -3.0399537746865507e-09 0.0000000000000000e+00  3.0455991498724706e-08 -1.8959722249201071e-09 0.0000000000000000e+00  3.1240884455652286e-08 -9.1268332376445606e-10 0.0000000000000000e+00  3.1500864728088241e-08 -1.4363522819578066e-12 0.0000000000000000e+00  3.1257783739493235e-08 9.1613156094463213e-10 0.0000000000000000e+00  3.0491056581187014e-08 1.9215571708563227e-09 0.0000000000000000e+00  2.9135520240923076e-08 3.1142425747759778e-09 0.0000000000000000e+00  2.7074831692414420e-08 4.6314316076826034e-09 0.0000000000000000e+00  2.4132393122380856e-08 6.6768388592669788e-09 0.0000000000000000e+00  2.0068060842578395e-08 9.5516253983355850e-09 0.0000000000000000e+00  1.4610199427679787e-08 1.3626663997194634e-08 0.0000000000000000e+00  7.6125263008603684e-09 1.8970042222961102e-08 0.0000000000000000e+00  -3.9903030997060014e-10 2.3829826949367309e-08 0.0000000000000000e+00  -1.0100432599960864e-08 1.5995165696600827e-08 0.0000000000000000e+00  -4.9036619848351442e-09 -2.1625457051969095e-08 0.0000000000000000e+00  -1.9011834419413295e-09 -2.6073495308707719e-08 0.0000000000000000e+00  6.7898368605574384e-11 -2.2680270414703928e-08 0.0000000000000000e+00  2.9755330332152850e-09 -1.7556094885092214e-08 0.0000000000000000e+00  6.3484815538417622e-09 -1.3058011743645736e-08 0.0000000000000000e+00  9.4370946123537596e-09 -9.5224942437737921e-09 0.0000000000000000e+00  1.1916403033567970e-08 -6.7955239733673268e-09 0.0000000000000000e+00  1.3750616120719422e-08 -4.6528889724165654e-09 0.0000000000000000e+00  1.4996436041993873e-08 -2.9009768959992337e-09 0.0000000000000000e+00  1.5716765839350768e-08 -1.3847101840088471e-09 0.0000000000000000e+00  1.5954104444472435e-08 2.4407181348736588e-11 0.0000000000000000e+00  1.5723486267050785e-08 1.4429873932457957e-09 0.0000000000000000e+00  1.5011400987369852e-08 2.9902962948579773e-09 0.0000000000000000e+00  1.3777522086963284e-08 4.8027507724884005e-09 0.0000000000000000e+00  1.1961599699300986e-08 7.0471711012789181e-09 0.0000000000000000e+00  9.5046071172212024e-09 9.9241058532835909e-09 0.0000000000000000e+00  6.4053402055124972e-09 1.3628478713977122e-08 0.0000000000000000e+00  2.8494939592902349e-09 1.8170079551101372e-08 0.0000000000000000e+00  -5.7947096213209494e-10 2.2835501982365598e-08 0.0000000000000000e+00  -2.9173874052722908e-09 2.5165941658945390e-08 0.0000000000000000e+00  -5.5839148130899925e-09 1.8927394784264730e-08 0.0000000000000000e+00  -3.0024478721868554e-09 -1.9810254601357551e-08 0.0000000000000000e+00  -2.8473847836285452e-09 -2.4965958947218485e-08 0.0000000000000000e+00  -3.5413424065745271e-09 -2.3680916646153653e-08 0.0000000000000000e+00  -3.3015013153601718e-09 -1.9866070959408547e-08 0.0000000000000000e+00  -2.1072357300924520e-09 -1.5608653655530011e-08 0.0000000000000000e+00  -5.2073499630582737e-10 -1.1792623582795255e-08 0.0000000000000000e+00  1.0139259114494454e-09 -8.6035751306289685e-09 0.0000000000000000e+00  2.2769206747665095e-09 -5.9695074279596444e-09 0.0000000000000000e+00  3.1897068574330689e-09 -3.7483918272624145e-09 0.0000000000000000e+00  3.7362960449868359e-09 -1.7916834034952808e-09 0.0000000000000000e+00  3.9196921455372721e-09 4.0553239880735317e-11 0.0000000000000000e+00  3.7432225572538287e-09 1.8818914023144745e-09 0.0000000000000000e+00  3.2055370519799680e-09 3.8669138346364318e-09 0.0000000000000000e+00  2.3051934992499873e-09 6.1375521061271828e-09 0.0000000000000000e+00  1.0566197319326027e-09 8.8410384375691854e-09 0.0000000000000000e+00  -4.7591863509744412e-10 1.2103476151139390e-08 0.0000000000000000e+00  -2.1180095000283198e-09 1.5943609921429434e-08 0.0000000000000000e+00  -3.5060832326476671e-09 2.0063547865625352e-08 0.0000000000000000e+00  -4.0794315068807687e-09 2.3465119004068786e-08 0.0000000000000000e+00  -3.4829199794261299e-09 2.4105770606512582e-08 0.0000000000000000e+00  -3.3424867367560417e-09 1.9220317633078603e-08 0.0000000000000000e+00  -1.9653109975529541e-09 -1.7476412495646804e-08 0.0000000000000000e+00  -3.1250204122212467e-09 -2.2639637037106766e-08 0.0000000000000000e+00  -5.0676474224547247e-09 -2.2549225560490745e-08 0.0000000000000000e+00  -6.3904483474497512e-09 -1.9989459701400874e-08 0.0000000000000000e+00  -6.7881690947682351e-09 -1.6460213332612353e-08 0.0000000000000000e+00  -6.5376669026048985e-09 -1.2883873719392082e-08 0.0000000000000000e+00  -5.9891887851809407e-09 -9.6388106338849165e-09 0.0000000000000000e+00  -5.3969718007169600e-09 -6.8026054223646614e-09 0.0000000000000000e+00  -4.9067329352900451e-09 -4.3176796254200665e-09 0.0000000000000000e+00  -4.5906137450018361e-09 -2.0758777902415081e-09 0.0000000000000000e+00  -4.4792693653886139e-09 4.6067019658112024e-11 0.0000000000000000e+00  -4.5804515897222912e-09 2.1744411365971455e-09 0.0000000000000000e+00  -4.8851308243488677e-09 4.4350507297581833e-09 0.0000000000000000e+00  -5.3629011745226234e-09 6.9485753750724600e-09 0.0000000000000000e+00  -5.9466991427055742e-09 9.8146507619280247e-09 0.0000000000000000e+00  -6.5068462901110448e-09 1.3069578428547629e-08 0.0000000000000000e+00  -6.8209928650721983e-09 1.6595600511846859e-08 0.0000000000000000e+00  -6.5695717345179726e-09 1.9962935166850377e-08 0.0000000000000000e+00  -5.4390935701425642e-09 2.2236790273019814e-08 0.0000000000000000e+00  -3.5068946002469724e-09 2.1946206327485823e-08 0.0000000000000000e+00  -2.1445005025395201e-09 1.7967276488163206e-08 0.0000000000000000e+00  -1.3431632083156421e-09 -1.5057877119862476e-08 0.0000000000000000e+00  -3.0911833639538879e-09 -1.9869399070841682e-08 0.0000000000000000e+00  -5.5423861025210289e-09 -2.0392529328708593e-08 0.0000000000000000e+00  -7.6535070720942782e-09 -1.8760383943282486e-08 0.0000000000000000e+00  -9.0288011444698754e-09 -1.6017737101133766e-08 0.0000000000000000e+00  -9.7392247906828569e-09 -1.2927398217015590e-08 0.0000000000000000e+00  -9.9982475567329656e-09 -9.9050860615929083e-09 0.0000000000000000e+00  -1.0012665896875045e-08 -7.1136362030800656e-09 0.0000000000000000e+00  -9.9325961234728503e-09 -4.5691020447248985e-09 0.0000000000000000e+00  -9.8504991277590638e-09 -2.2137158752906121e-09 0.0000000000000000e+00  -9.8142143924220197e-09 4.2976946745683138e-11 0.0000000000000000e+00  -9.8381742012484946e-09 2.3028612318897375e-09 0.0000000000000000e+00  -9.9079200672134154e-09 4.6666331901792910e-09 0.0000000000000000e+00  -9.9773265844125627e-09 7.2204725450908811e-09 0.0000000000000000e+00  -9.9597735492519071e-09 1.0012859797857185e-08 0.0000000000000000e+00  -9.7175502354869254e-09 1.3011469216375856e-08 0.0000000000000000e+00  -9.0613034937509383e-09 1.6031696897494495e-08 0.0000000000000000e+00  -7.7857373436498825e-09 1.8641423697712881e-08 0.0000000000000000e+00  -5.7855712432911337e-09 2.0085168352239748e-08 0.0000000000000000e+00  -3.3213726384043569e-09 1.9338463574502564e-08 0.0000000000000000e+00  -1.4396175464914657e-09 1.6063866711895016e-08 0.0000000000000000e+00  -9.4458122018577765e-10 -1.2734095400377362e-08 0.0000000000000000e+00  -2.9099167442379207e-09 -1.7032541205932596e-08 0.0000000000000000e+00  -5.4892970932717186e-09 -1.7824439693838015e-08 0.0000000000000000e+00  -7.9206078594388125e-09 -1.6820699643712617e-08 0.0000000000000000e+00  -9.8139108328055669e-09 -1.4753579013057310e-08 0.0000000000000000e+00  -1.1124067554972565e-08 -1.2205301363712196e-08 0.0000000000000000e+00  -1.1951355872661049e-08 -9.5471032968739050e-09 0.0000000000000000e+00  -1.2433365021447377e-08 -6.9671601890185167e-09 0.0000000000000000e+00  -1.2691030293338975e-08 -4.5266916805565174e-09 0.0000000000000000e+00  -1.2810262816103630e-08 -2.2109370814148172e-09 0.0000000000000000e+00  -1.2840484642284169e-08 3.4680928449948664e-11 0.0000000000000000e+00  -1.2797822619014437e-08 2.2808616366273747e-09 0.0000000000000000e+00  -1.2667142250767278e-08 4.5970968385620509e-09 0.0000000000000000e+00  -1.2401362037521407e-08 7.0341000732884528e-09 0.0000000000000000e+00  -1.1919554921695550e-08 9.5996818988536264e-09 0.0000000000000000e+00  -1.1108848052384326e-08 1.2222983157660477e-08 0.0000000000000000e+00  -9.8401350656147413e-09 1.4706345454244194e-08 0.0000000000000000e+00  -8.0131322876763749e-09 1.6675130066358501e-08 0.0000000000000000e+00  -5.6475608933600684e-09 1.7555638471450487e-08 0.0000000000000000e+00  -3.0502993988298032e-09 1.6632961755268893e-08 0.0000000000000000e+00  -9.9433529241229918e-10 1.3958235044053620e-08 0.0000000000000000e+00  -6.7820716594846965e-10 -1.0575932870278319e-08 0.0000000000000000e+00  -2.6707481740635876e-09 -1.4308865314523706e-08 0.0000000000000000e+00  -5.1904198043804064e-09 -1.5171248715372714e-08 0.0000000000000000e+00  -7.6811308965115773e-09 -1.4574508846880887e-08 0.0000000000000000e+00  -9.7940763177197616e-09 -1.3039616204928008e-08 0.0000000000000000e+00  -1.1428907493926969e-08 -1.0997258325088557e-08 0.0000000000000000e+00  -1.2609090966383992e-08 -8.7491968353165302e-09 0.0000000000000000e+00  -1.3409848805689828e-08 -6.4730544378701882e-09 0.0000000000000000e+00  -1.3913245692574002e-08 -4.2489611459655834e-09 0.0000000000000000e+00  -1.4185427118459612e-08 -2.0912032013641529e-09 0.0000000000000000e+00  -1.4267726050938352e-08 2.4378430986394827e-11 0.0000000000000000e+00  -1.4174418304124102e-08 2.1388968273774738e-09 0.0000000000000000e+00  -1.3892735975689963e-08 4.2925688922598814e-09 0.0000000000000000e+00  -1.3383677885925159e-08 6.5068863161687201e-09 0.0000000000000000e+00  -1.2584812708665946e-08 8.7633691807410589e-09 0.0000000000000000e+00  -1.1418885550653078e-08 1.0977104771875293e-08 0.0000000000000000e+00  -9.8144458661421485e-09 1.2967105321854406e-08 0.0000000000000000e+00  -7.7455602191159694e-09 1.4431992867999080e-08 0.0000000000000000e+00  -5.2946703187430966e-09 1.4947669768528871e-08 0.0000000000000000e+00  -2.7571767640412010e-09 1.4009267781936003e-08 0.0000000000000000e+00  -7.0026762149792116e-10 1.1862557846329193e-08 0.0000000000000000e+00  -4.9535678123907692e-10 -8.6019263802410056e-09 0.0000000000000000e+00  -2.4237325596396864e-09 -1.1773646310456079e-08 0.0000000000000000e+00  -4.8013523179091122e-09 -1.2595691835547495e-08 0.0000000000000000e+00  -7.2191504897694641e-09 -1.2254055978277443e-08 0.0000000000000000e+00  -9.3763875371676156e-09 -1.1124414610246477e-08 0.0000000000000000e+00  -1.1151854173319295e-08 -9.5209653572108571e-09 0.0000000000000000e+00  -1.2522401284179507e-08 -7.6770395217718562e-09 0.0000000000000000e+00  -1.3516324023489968e-08 -5.7440088074656470e-09 0.0000000000000000e+00  -1.4179864369082082e-08 -3.8032674966603735e-09 0.0000000000000000e+00  -1.4556400615063249e-08 -1.8846892776121609e-09 0.0000000000000000e+00  -1.4675388871347227e-08 1.4314053478248863e-11 0.0000000000000000e+00  -1.4547558460873525e-08 1.9115183390268031e-09 0.0000000000000000e+00  -1.4163775885852723e-08 3.8241609726125860e-09 0.0000000000000000e+00  -1.3496592896093412e-08 5.7533172517410585e-09 0.0000000000000000e+00  -1.2505215364274515e-08 7.6669974256657560e-09 0.0000000000000000e+00  -1.1146141177310887e-08 9.4818367418999135e-09 0.0000000000000000e+00  -9.3925277615319327e-09 1.1045657661404782e-08 0.0000000000000000e+00  -7.2646551471728680e-09 1.2126162194849606e-08 0.0000000000000000e+00  -4.8711629039246362e-09 1.2413758565944094e-08 0.0000000000000000e+00  -2.4771700872540116e-09 1.1547915001544799e-08 0.0000000000000000e+00  -5.0117599493795625e-10 9.8722562797551677e-09 0.0000000000000000e+00  -3.6787988478344037e-10 -6.8037477731520970e-09 0.0000000000000000e+00  -2.1961396633558965e-09 -9.4451481718064311e-09 0.0000000000000000e+00  -4.4077346806898188e-09 -1.0167382685658216e-08 0.0000000000000000e+00  -6.6970220665340177e-09 -9.9805894750627859e-09 0.0000000000000000e+00  -8.8069341035983543e-09 -9.1572338615442797e-09 0.0000000000000000e+00  -1.0612580821601546e-08 -7.9241827713461549e-09 0.0000000000000000e+00  -1.2064824773402611e-08 -6.4559533043066390e-09 0.0000000000000000e+00  -1.3160044736471435e-08 -4.8735587189963627e-09 0.0000000000000000e+00  -1.3916356256881475e-08 -3.2498604147557465e-09 0.0000000000000000e+00  -1.4356849491297973e-08 -1.6200594767838650e-09 0.0000000000000000e+00  -1.4499193895471109e-08 5.7035188073616975e-12 0.0000000000000000e+00  -1.4350274665180657e-08 1.6295269428755750e-09 0.0000000000000000e+00  -1.3904633652630975e-08 3.2532472390027455e-09 0.0000000000000000e+00  -1.3146185988849172e-08 4.8660302300997600e-09 0.0000000000000000e+00  -1.2053570755670930e-08 6.4318277671403575e-09 0.0000000000000000e+00  -1.0610181811726432e-08 7.8772018379589608e-09 0.0000000000000000e+00  -8.8200108860314712e-09 9.0812137275514496e-09 0.0000000000000000e+00  -6.7296214153048338e-09 9.8700840493027839e-09 0.0000000000000000e+00  -4.4550579136983379e-09 1.0020079650194597e-08 0.0000000000000000e+00  -2.2291156596332661e-09 9.2728304844605307e-09 0.0000000000000000e+00  -3.6489216414023053e-10 8.0223528652272004e-09 0.0000000000000000e+00  -2.7865381052554117e-10 -5.1591425782539156e-09 0.0000000000000000e+00  -2.0021130770768363e-09 -7.3107511504868712e-09 0.0000000000000000e+00  -4.0557584103706214e-09 -7.9031795449145150e-09 0.0000000000000000e+00  -6.2056522713734515e-09 -7.8067311644004083e-09 0.0000000000000000e+00  -8.2303440890961966e-09 -7.2174272819599592e-09 0.0000000000000000e+00  -1.0008680954275848e-08 -6.2962740628095025e-09 0.0000000000000000e+00  -1.1478229334816085e-08 -5.1696324286631644e-09 0.0000000000000000e+00  -1.2615135083199771e-08 -3.9292847816399576e-09 0.0000000000000000e+00  -1.3417476137178521e-08 -2.6349775295874556e-09 0.0000000000000000e+00  -1.3892550746983556e-08 -1.3203566267363747e-09 0.0000000000000000e+00  -1.4048214398226690e-08 -1.0130830781492746e-12 0.0000000000000000e+00  -1.3887983676292534e-08 1.3165617939691910e-09 0.0000000000000000e+00  -1.3409486302674562e-08 2.6257885244031398e-09 0.0000000000000000e+00  -1.2606037625617775e-08 3.9108670234145128e-09 0.0000000000000000e+00  -1.1471461945706433e-08 5.1379690098570989e-09 0.0000000000000000e+00  -1.0008484981250691e-08 6.2473595944670568e-09 0.0000000000000000e+00  -8.2408755006472945e-09 7.1474999707803287e-09 0.0000000000000000e+00  -6.2289985519959267e-09 7.7122932936538164e-09 0.0000000000000000e+00  -4.0878351017873341e-09 7.7828748801908350e-09 0.0000000000000000e+00  -2.0222584880788347e-09 7.1762219077434086e-09 0.0000000000000000e+00  -2.7180243347205717e-10 6.3155540564776185e-09 0.0000000000000000e+00  -2.1700182675178238e-10 -3.6388589141117749e-09 0.0000000000000000e+00  -1.8484681274652356e-09 -5.3416043151952594e-09 0.0000000000000000e+00  -3.7694772450906314e-09 -5.7905022817596680e-09 0.0000000000000000e+00  -5.7945453183312014e-09 -5.7438661597468267e-09 0.0000000000000000e+00  -7.7292404122944018e-09 -5.3382524244699065e-09 0.0000000000000000e+00  -9.4583770016196846e-09 -4.6836439069609207e-09 0.0000000000000000e+00  -1.0913432333579695e-08 -3.8672034706708699e-09 0.0000000000000000e+00  -1.2058475680858877e-08 -2.9543097531690772e-09 0.0000000000000000e+00  -1.2878335436217192e-08 -1.9899093188319156e-09 0.0000000000000000e+00  -1.3369134991721234e-08 -1.0018560129998231e-09 0.0000000000000000e+00  -1.3531443256141173e-08 -5.8553936756917684e-12 0.0000000000000000e+00  -1.3366180433856440e-08 9.8865425607602583e-10 0.0000000000000000e+00  -1.2873260508152440e-08 1.9722399444553469e-09 0.0000000000000000e+00  -1.2052922580926685e-08 2.9292337062215126e-09 0.0000000000000000e+00  -1.0909744081889469e-08 3.8318968194250382e-09 0.0000000000000000e+00  -9.4593063077866636e-09 4.6354817939606364e-09 0.0000000000000000e+00  -7.7373139244876820e-09 5.2747669492022797e-09 0.0000000000000000e+00  -5.8107663050059364e-09 5.6624464334873166e-09 0.0000000000000000e+00  -3.7906836715129584e-09 5.6900393256310335e-09 0.0000000000000000e+00  -1.8604651457901166e-09 5.2329797648880646e-09 0.0000000000000000e+00  -2.0954912423346436e-10 4.7370612898487801e-09 0.0000000000000000e+00  -1.7627284945450099e-10 -2.2103845200762977e-09 0.0000000000000000e+00  -1.7381492636422837e-09 -3.5007537692957822e-09 0.0000000000000000e+00  -3.5608009239979338e-09 -3.8007673554284529e-09 0.0000000000000000e+00  -5.4896660241484239e-09 -3.7792622044741061e-09 0.0000000000000000e+00  -7.3492622015021941e-09 -3.5239125874284016e-09 0.0000000000000000e+00  -9.0299784122920017e-09 -3.1033875521941632e-09 0.0000000000000000e+00  -1.0460948727896