<?xml version="1.0"?>
<VTKFile type="UnstructuredGrid"  version="0.1"  >
<UnstructuredGrid>
<Piece  NumberOfPoints="651" NumberOfCells="1200">
<Points>
<DataArray  type="Float64"  NumberOfComponents="3"  format="ascii">0 0 0  50000 0 0  100000 0 0  150000 0 0  200000 0 0  250000 0 0  300000 0 0  350000 0 0  400000 0 0  450000 0 0  500000 0 0  550000 0 0  600000 0 0  650000 0 0  700000 0 0  750000 0 0  800000 0 0  850000 0 0  900000 0 0  950000 0 0  1000000 0 0  0 50000 0  50000 50000 0  100000 50000 0  150000 50000 0  200000 50000 0  250000 50000 0  300000 50000 0  350000 50000 0  400000 50000 0  450000 50000 0  500000 50000 0  550000 50000 0  600000 50000 0  650000 50000 0  700000 50000 0  750000 50000 0  800000 50000 0  850000 50000 0  900000 50000 0  950000 50000 0  1000000 50000 0  0 100000 0  50000 100000 0  100000 100000 0  150000 100000 0  200000 100000 0  250000 100000 0  300000 100000 0  350000 100000 0  400000 100000 0  450000 100000 0  500000 100000 0  550000 100000 0  600000 100000 0  650000 100000 0  700000 100000 0  750000 100000 0  800000 100000 0  850000 100000 0  900000 100000 0  950000 100000 0  1000000 100000 0  0 150000 0  50000 150000 0  100000 150000 0  150000 150000 0  200000 150000 0  250000 150000 0  300000 150000 0  350000 150000 0  400000 150000 0  450000 150000 0  500000 150000 0  550000 150000 0  600000 150000 0  650000 150000 0  700000 150000 0  750000 150000 0  800000 150000 0  850000 150000 0  900000 150000 0  950000 150000 0  1000000 150000 0  0 200000 0  50000 200000 0  100000 200000 0  150000 200000 0  200000 200000 0  250000 200000 0  300000 200000 0  350000 200000 0  400000 200000 0  450000 200000 0  500000 200000 0  550000 200000 0  600000 200000 0  650000 200000 0  700000 200000 0  750000 200000 0  800000 200000 0  850000 200000 0  900000 200000 0  950000 200000 0  1000000 200000 0  0 250000 0  50000 250000 0  100000 250000 0  150000 250000 0  200000 250000 0  250000 250000 0  300000 250000 0  350000 250000 0  400000 250000 0  450000 250000 0  500000 250000 0  550000 250000 0  600000 250000 0  650000 250000 0  700000 250000 0  750000 250000 0  800000 250000 0  850000 250000 0  900000 250000 0  950000 250000 0  1000000 250000 0  0 300000 0  50000 300000 0  100000 300000 0  150000 300000 0  200000 300000 0  250000 300000 0  300000 300000 0  350000 300000 0  400000 300000 0  450000 300000 0  500000 300000 0  550000 300000 0  600000 300000 0  650000 300000 0  700000 300000 0  750000 300000 0  800000 300000 0  850000 300000 0  900000 300000 0  950000 300000 0  1000000 300000 0  0 350000 0  50000 350000 0  100000 350000 0  150000 350000 0  200000 350000 0  250000 350000 0  300000 350000 0  350000 350000 0  400000 350000 0  450000 350000 0  500000 350000 0  550000 350000 0  600000 350000 0  650000 350000 0  700000 350000 0  750000 350000 0  800000 350000 0  850000 350000 0  900000 350000 0  950000 350000 0  1000000 350000 0  0 400000 0  50000 400000 0  100000 400000 0  150000 400000 0  200000 400000 0  250000 400000 0  300000 400000 0  350000 400000 0  400000 400000 0  450000 400000 0  500000 400000 0  550000 400000 0  600000 400000 0  650000 400000 0  700000 400000 0  750000 400000 0  800000 400000 0  850000 400000 0  900000 400000 0  950000 400000 0  1000000 400000 0  0 450000 0  50000 450000 0  100000 450000 0  150000 450000 0  200000 450000 0  250000 450000 0  300000 450000 0  350000 450000 0  400000 450000 0  450000 450000 0  500000 450000 0  550000 450000 0  600000 450000 0  650000 450000 0  700000 450000 0  750000 450000 0  800000 450000 0  850000 450000 0  900000 450000 0  950000 450000 0  1000000 450000 0  0 500000 0  50000 500000 0  100000 500000 0  150000 500000 0  200000 500000 0  250000 500000 0  300000 500000 0  350000 500000 0  400000 500000 0  450000 500000 0  500000 500000 0  550000 500000 0  600000 500000 0  650000 500000 0  700000 500000 0  750000 500000 0  800000 500000 0  850000 500000 0  900000 500000 0  950000 500000 0  1000000 500000 0  0 550000 0  50000 550000 0  100000 550000 0  150000 550000 0  200000 550000 0  250000 550000 0  300000 550000 0  350000 550000 0  400000 550000 0  450000 550000 0  500000 550000 0  550000 550000 0  600000 550000 0  650000 550000 0  700000 550000 0  750000 550000 0  800000 550000 0  850000 550000 0  900000 550000 0  950000 550000 0  1000000 550000 0  0 600000 0  50000 600000 0  100000 600000 0  150000 600000 0  200000 600000 0  250000 600000 0  300000 600000 0  350000 600000 0  400000 600000 0  450000 600000 0  500000 600000 0  550000 600000 0  600000 600000 0  650000 600000 0  700000 600000 0  750000 600000 0  800000 600000 0  850000 600000 0  900000 600000 0  950000 600000 0  1000000 600000 0  0 650000 0  50000 650000 0  100000 650000 0  150000 650000 0  200000 650000 0  250000 650000 0  300000 650000 0  350000 650000 0  400000 650000 0  450000 650000 0  500000 650000 0  550000 650000 0  600000 650000 0  650000 650000 0  700000 650000 0  750000 650000 0  800000 650000 0  850000 650000 0  900000 650000 0  950000 650000 0  1000000 650000 0  0 700000 0  50000 700000 0  100000 700000 0  150000 700000 0  200000 700000 0  250000 700000 0  300000 700000 0  350000 700000 0  400000 700000 0  450000 700000 0  500000 700000 0  550000 700000 0  600000 700000 0  650000 700000 0  700000 700000 0  750000 700000 0  800000 700000 0  850000 700000 0  900000 700000 0  950000 700000 0  1000000 700000 0  0 750000 0  50000 750000 0  100000 750000 0  150000 750000 0  200000 750000 0  250000 750000 0  300000 750000 0  350000 750000 0  400000 750000 0  450000 750000 0  500000 750000 0  550000 750000 0  600000 750000 0  650000 750000 0  700000 750000 0  750000 750000 0  800000 750000 0  850000 750000 0  900000 750000 0  950000 750000 0  1000000 750000 0  0 800000 0  50000 800000 0  100000 800000 0  150000 800000 0  200000 800000 0  250000 800000 0  300000 800000 0  350000 800000 0  400000 800000 0  450000 800000 0  500000 800000 0  550000 800000 0  600000 800000 0  650000 800000 0  700000 800000 0  750000 800000 0  800000 800000 0  850000 800000 0  900000 800000 0  950000 800000 0  1000000 800000 0  0 850000 0  50000 850000 0  100000 850000 0  150000 850000 0  200000 850000 0  250000 850000 0  300000 850000 0  350000 850000 0  400000 850000 0  450000 850000 0  500000 850000 0  550000 850000 0  600000 850000 0  650000 850000 0  700000 850000 0  750000 850000 0  800000 850000 0  850000 850000 0  900000 850000 0  950000 850000 0  1000000 850000 0  0 900000 0  50000 900000 0  100000 900000 0  150000 900000 0  200000 900000 0  250000 900000 0  300000 900000 0  350000 900000 0  400000 900000 0  450000 900000 0  500000 900000 0  550000 900000 0  600000 900000 0  650000 900000 0  700000 900000 0  750000 900000 0  800000 900000 0  850000 900000 0  900000 900000 0  950000 900000 0  1000000 900000 0  0 950000 0  50000 950000 0  100000 950000 0  150000 950000 0  200000 950000 0  250000 950000 0  300000 950000 0  350000 950000 0  400000 950000 0  450000 950000 0  500000 950000 0  550000 950000 0  600000 950000 0  650000 950000 0  700000 950000 0  750000 950000 0  800000 950000 0  850000 950000 0  900000 950000 0  950000 950000 0  1000000 950000 0  0 1000000 0  50000 1000000 0  100000 1000000 0  150000 1000000 0  200000 1000000 0  250000 1000000 0  300000 1000000 0  350000 1000000 0  400000 1000000 0  450000 1000000 0  500000 1000000 0  550000 1000000 0  600000 1000000 0  650000 1000000 0  700000 1000000 0  750000 1000000 0  800000 1000000 0  850000 1000000 0  900000 1000000 0  950000 1000000 0  1000000 1000000 0  0 1050000 0  50000 1050000 0  100000 1050000 0  150000 1050000 0  200000 1050000 0  250000 1050000 0  300000 1050000 0  350000 1050000 0  400000 1050000 0  450000 1050000 0  500000 1050000 0  550000 1050000 0  600000 1050000 0  650000 1050000 0  700000 1050000 0  750000 1050000 0  800000 1050000 0  850000 1050000 0  900000 1050000 0  950000 1050000 0  1000000 1050000 0  0 1100000 0  50000 1100000 0  100000 1100000 0  150000 1100000 0  200000 1100000 0  250000 1100000 0  300000 1100000 0  350000 1100000 0  400000 1100000 0  450000 1100000 0  500000 1100000 0  550000 1100000 0  600000 1100000 0  650000 1100000 0  700000 1100000 0  750000 1100000 0  800000 1100000 0  850000 1100000 0  900000 1100000 0  950000 1100000 0  1000000 1100000 0  0 1150000 0  50000 1150000 0  100000 1150000 0  150000 1150000 0  200000 1150000 0  250000 1150000 0  300000 1150000 0  350000 1150000 0  400000 1150000 0  450000 1150000 0  500000 1150000 0  550000 1150000 0  600000 1150000 0  650000 1150000 0  700000 1150000 0  750000 1150000 0  800000 1150000 0  850000 1150000 0  900000 1150000 0  950000 1150000 0  1000000 1150000 0  0 1200000 0  50000 1200000 0  100000 1200000 0  150000 1200000 0  200000 1200000 0  250000 1200000 0  300000 1200000 0  350000 1200000 0  400000 1200000 0  450000 1200000 0  500000 1200000 0  550000 1200000 0  600000 1200000 0  650000 1200000 0  700000 1200000 0  750000 1200000 0  800000 1200000 0  850000 1200000 0  900000 1200000 0  950000 1200000 0  1000000 1200000 0  0 1250000 0  50000 1250000 0  100000 1250000 0  150000 1250000 0  200000 1250000 0  250000 1250000 0  300000 1250000 0  350000 1250000 0  400000 1250000 0  450000 1250000 0  500000 1250000 0  550000 1250000 0  600000 1250000 0  650000 1250000 0  700000 1250000 0  750000 1250000 0  800000 1250000 0  850000 1250000 0  900000 1250000 0  950000 1250000 0  1000000 1250000 0  0 1300000 0  50000 1300000 0  100000 1300000 0  150000 1300000 0  200000 1300000 0  250000 1300000 0  300000 1300000 0  350000 1300000 0  400000 1300000 0  450000 1300000 0  500000 1300000 0  550000 1300000 0  600000 1300000 0  650000 1300000 0  700000 1300000 0  750000 1300000 0  800000 1300000 0  850000 1300000 0  900000 1300000 0  950000 1300000 0  1000000 1300000 0  0 1350000 0  50000 1350000 0  100000 1350000 0  150000 1350000 0  200000 1350000 0  250000 1350000 0  300000 1350000 0  350000 1350000 0  400000 1350000 0  450000 1350000 0  500000 1350000 0  550000 1350000 0  600000 1350000 0  650000 1350000 0  700000 135
[...]
<PointData  Vectors="f_8983"> 
<DataArray  type="Float64"  Name="f_8983"  NumberOfComponents="3" format="ascii">-2.0912920186722114e-08 -1.0992941735945634e-08 0.0000000000000000e+00  5.4898443895939894e-08 -7.0525739459692326e-09 0.0000000000000000e+00  5.3889797828829177e-08 -2.7492296492878921e-09 0.0000000000000000e+00  5.5739407180873643e-08 -1.3110545548795537e-09 0.0000000000000000e+00  5.8192260769701975e-08 -7.4360486783960750e-10 0.0000000000000000e+00  6.0394252851386265e-08 -4.5471388372308859e-10 0.0000000000000000e+00  6.2170095643108873e-08 -2.8438065077424618e-10 0.0000000000000000e+00  6.3494347117537019e-08 -1.7508571679131607e-10 0.0000000000000000e+00  6.4377871821811169e-08 -9.9580208211055687e-11 0.0000000000000000e+00  6.4836903118211619e-08 -4.1207181463810290e-11 0.0000000000000000e+00  6.4882989394327281e-08 1.2860350235514048e-11 0.0000000000000000e+00  6.4520280576306812e-08 7.4831977075738957e-11 0.0000000000000000e+00  6.3746982818998403e-08 1.5887087924289276e-10 0.0000000000000000e+00  6.2562113565203712e-08 2.8469252915582975e-10 0.0000000000000000e+00  6.0983892540631832e-08 4.8483596924618316e-10 0.0000000000000000e+00  5.9098647052513232e-08 8.2259439225926162e-10 0.0000000000000000e+00  5.7191328817525083e-08 1.4405254464025353e-09 0.0000000000000000e+00  5.6064084414092053e-08 2.6878676816717330e-09 0.0000000000000000e+00  5.7344201899131477e-08 5.3858113278135962e-09 0.0000000000000000e+00  6.0739611251133759e-08 1.0012421123765613e-08 0.0000000000000000e+00  -1.5343345369154943e-08 7.8469883532145573e-09 0.0000000000000000e+00  -1.5264733257635446e-08 -1.6650703037292345e-08 0.0000000000000000e+00  9.3449834125859583e-09 -1.4222471412095496e-08 0.0000000000000000e+00  2.2150224087488698e-08 -8.8899942005894128e-09 0.0000000000000000e+00  3.0001406811019425e-08 -5.9785925275556520e-09 0.0000000000000000e+00  3.5452783695732845e-08 -4.3532110279339790e-09 0.0000000000000000e+00  3.9513074622156792e-08 -3.2668639643356311e-09 0.0000000000000000e+00  4.2554807634001846e-08 -2.4303646650314501e-09 0.0000000000000000e+00  4.4776745395897653e-08 -1.7279330784916491e-09 0.0000000000000000e+00  4.6296747360202802e-08 -1.1040731886967050e-09 0.0000000000000000e+00  4.7185567186323691e-08 -5.2435581217195945e-10 0.0000000000000000e+00  4.7482190889043203e-08 3.8114819937969017e-11 0.0000000000000000e+00  4.7200597135147866e-08 6.0834982167781531e-10 0.0000000000000000e+00  4.6332297330214047e-08 1.2131211181682756e-09 0.0000000000000000e+00  4.4846172486282553e-08 1.8854657022896901e-09 0.0000000000000000e+00  4.2685256954511678e-08 2.6734757910694248e-09 0.0000000000000000e+00  3.9756806526324278e-08 3.6610286762651505e-09 0.0000000000000000e+00  3.5899202463040905e-08 5.0194534891311379e-09 0.0000000000000000e+00  3.0750599541538891e-08 7.1255194300644049e-09 0.0000000000000000e+00  2.3206891662499933e-08 1.0706755573030389e-08 0.0000000000000000e+00  9.8253647762022511e-09 1.6225402950225996e-08 0.0000000000000000e+00  -1.6364963625417192e-08 1.1972961066115214e-08 0.0000000000000000e+00  -8.5302726080378862e-09 -2.0099139225122320e-08 0.0000000000000000e+00  4.5924836858076680e-10 -2.2612610937229191e-08 0.0000000000000000e+00  6.9504845799132324e-09 -1.6934227686338188e-08 0.0000000000000000e+00  1.3204234731254219e-08 -1.2396597585157122e-08 0.0000000000000000e+00  1.8776648836230399e-08 -9.2429379156010388e-09 0.0000000000000000e+00  2.3220408275867699e-08 -6.9611911586940520e-09 0.0000000000000000e+00  2.6618731294739142e-08 -5.1740822131929859e-09 0.0000000000000000e+00  2.9119956398250544e-08 -3.6764539260341764e-09 0.0000000000000000e+00  3.0837199475576568e-08 -2.3523790440392097e-09 0.0000000000000000e+00  3.1844530294257427e-08 -1.1269566635407642e-09 0.0000000000000000e+00  3.2183832342735846e-08 5.6968322267410792e-11 0.0000000000000000e+00  3.1869929870808918e-08 1.2506623224622937e-09 0.0000000000000000e+00  3.0892725572879265e-08 2.5074475955844699e-09 0.0000000000000000e+00  2.9216578711240375e-08 3.8912209686230583e-09 0.0000000000000000e+00  2.6776860019863347e-08 5.4897313725319799e-09 0.0000000000000000e+00  2.3473476858347693e-08 7.4380023708966338e-09 0.0000000000000000e+00  1.9163308772828980e-08 9.9555282608362688e-09 0.0000000000000000e+00  1.3667354966938752e-08 1.3365824819612580e-08 0.0000000000000000e+00  6.8704569962044252e-09 1.7850230572163938e-08 0.0000000000000000e+00  -8.8268198894712333e-10 2.1958469778723106e-08 0.0000000000000000e+00  -1.0997363871419960e-08 1.5852196323936529e-08 0.0000000000000000e+00  -4.9348865718609876e-09 -2.0054620258980427e-08 0.0000000000000000e+00  -1.5593086093140804e-09 -2.4316899211362516e-08 0.0000000000000000e+00  6.2628302056833144e-10 -2.1800564910205344e-08 0.0000000000000000e+00  3.7879117433480151e-09 -1.7575730981847497e-08 0.0000000000000000e+00  7.5276793527953336e-09 -1.3767621216619363e-08 0.0000000000000000e+00  1.1077333640173922e-08 -1.0610735581464682e-08 0.0000000000000000e+00  1.4050851444745465e-08 -7.9728680023549590e-09 0.0000000000000000e+00  1.6345106851665545e-08 -5.6964594041490414e-09 0.0000000000000000e+00  1.7961442825827868e-08 -3.6575958730795983e-09 0.0000000000000000e+00  1.8923532151626148e-08 -1.7608166170579261e-09 0.0000000000000000e+00  1.9251195858844353e-08 7.2931944803162905e-11 0.0000000000000000e+00  1.8952904780313896e-08 1.9160690397091354e-09 0.0000000000000000e+00  1.8024401241284533e-08 3.8421982875339251e-09 0.0000000000000000e+00  1.6450472481674672e-08 5.9335462258902135e-09 0.0000000000000000e+00  1.4211249402361904e-08 8.2884750936814489e-09 0.0000000000000000e+00  1.1299535952392263e-08 1.1024837575200274e-08 0.0000000000000000e+00  7.7661897959238235e-09 1.4258971657930239e-08 0.0000000000000000e+00  3.8275319903626793e-09 1.7988932310152772e-08 0.0000000000000000e+00  4.4904078114147264e-11 2.1682622821373499e-08 0.0000000000000000e+00  -2.7952706761619201e-09 2.3351101253576976e-08 0.0000000000000000e+00  -6.6288067957976046e-09 1.8349372447935991e-08 0.0000000000000000e+00  -3.1215182650674328e-09 -1.8659894314726913e-08 0.0000000000000000e+00  -2.1796817220690425e-09 -2.3686493266982098e-08 0.0000000000000000e+00  -2.1826637889848415e-09 -2.3302067302938671e-08 0.0000000000000000e+00  -1.2950577973006869e-09 -2.0418524452513852e-08 0.0000000000000000e+00  5.0643290750020902e-10 -1.6874291068800588e-08 0.0000000000000000e+00  2.6754287815841283e-09 -1.3434030879343463e-08 0.0000000000000000e+00  4.7518518348041744e-09 -1.0292468851876617e-08 0.0000000000000000e+00  6.4850810474317523e-09 -7.4413068141577633e-09 0.0000000000000000e+00  7.7638717666934781e-09 -4.8145137156544461e-09 0.0000000000000000e+00  8.5456699593292348e-09 -2.3344376662152510e-09 0.0000000000000000e+00  8.8168719203845189e-09 7.6327697679918222e-11 0.0000000000000000e+00  8.5754645053845833e-09 2.4936918736017526e-09 0.0000000000000000e+00  7.8260654141759412e-09 4.9932984370871594e-09 0.0000000000000000e+00  6.5834721628347115e-09 7.6507237207961757e-09 0.0000000000000000e+00  4.8857548539060547e-09 1.0536184870685853e-08 0.0000000000000000e+00  2.8221371053222304e-09 1.3693048158650055e-08 0.0000000000000000e+00  5.8341237863752921e-10 1.7075757688256915e-08 0.0000000000000000e+00  -1.4691504560491825e-09 2.0402520837388921e-08 0.0000000000000000e+00  -2.7987429229858871e-09 2.2879085267644455e-08 0.0000000000000000e+00  -3.1137002929130612e-09 2.2919472845236655e-08 0.0000000000000000e+00  -4.2897467365328430e-09 1.8626331120914017e-08 0.0000000000000000e+00  -2.0968906282212584e-09 -1.6783670302101154e-08 0.0000000000000000e+00  -2.4148273511538855e-09 -2.2090740865865132e-08 0.0000000000000000e+00  -3.5535899470923492e-09 -2.2913937982349236e-08 0.0000000000000000e+00  -4.1045862652587574e-09 -2.1255525214124148e-08 0.0000000000000000e+00  -3.8150341943382613e-09 -1.8382768897948004e-08 0.0000000000000000e+00  -2.9599360351356587e-09 -1.5115500105259031e-08 0.0000000000000000e+00  -1.8900075041448290e-09 -1.1836951181198214e-08 0.0000000000000000e+00  -8.6819981251964771e-10 -8.6832989634050285e-09 0.0000000000000000e+00  -5.4100013225687545e-11 -5.6728380938219007e-09 0.0000000000000000e+00  4.6639772516758003e-10 -2.7729393295424499e-09 0.0000000000000000e+00  6.5290537125048318e-10 6.9649391833154928e-11 0.0000000000000000e+00  4.9398395458468618e-10 2.9150006725942033e-09 0.0000000000000000e+00  1.3341003272023889e-12 5.8218593073541053e-09 0.0000000000000000e+00  -7.8692991362026411e-10 8.8385562605072243e-09 0.0000000000000000e+00  -1.7941516357236215e-09 1.1986209514196851e-08 0.0000000000000000e+00  -2.8841159122337702e-09 1.5223898003991565e-08 0.0000000000000000e+00  -3.8358876626228921e-09 1.8381662749285316e-08 0.0000000000000000e+00  -4.3381131520522270e-09 2.1053526491050036e-08 0.0000000000000000e+00  -4.0767219932509835e-09 2.2480615830654445e-08 0.0000000000000000e+00  -3.1053917096423095e-09 2.1544039945568551e-08 0.0000000000000000e+00  -2.9170272293523896e-09 1.7572365534920223e-08 0.0000000000000000e+00  -1.4503204920526081e-09 -1.4764076441278912e-08 0.0000000000000000e+00  -2.4876899777921210e-09 -2.0035454554916036e-08 0.0000000000000000e+00  -4.2421821762356637e-09 -2.1510365027432789e-08 0.0000000000000000e+00  -5.6711954785353152e-09 -2.0732725001225190e-08 0.0000000000000000e+00  -6.4441544836070348e-09 -1.8564287074127287e-08 0.0000000000000000e+00  -6.6432444566871602e-09 -1.5692567459394233e-08 0.0000000000000000e+00  -6.4799244478385273e-09 -1.2543848855796851e-08 0.0000000000000000e+00  -6.1593321829005562e-09 -9.3370533077350138e-09 0.0000000000000000e+00  -5.8334966553939136e-09 -6.1618129709682170e-09 0.0000000000000000e+00  -5.5989695876341830e-09 -3.0364120890077082e-09 0.0000000000000000e+00  -5.5074633785276666e-09 5.6641067384449560e-11 0.0000000000000000e+00  -5.5754075292794916e-09 3.1489657512169945e-09 0.0000000000000000e+00  -5.7881215026682433e-09 6.2705646514149112e-09 0.0000000000000000e+00  -6.0981273851392407e-09 9.4336487309822475e-09 0.0000000000000000e+00  -6.4186636067510500e-09 1.2610000544391392e-08 0.0000000000000000e+00  -6.6158040537886294e-09 1.5695498026537747e-08 0.0000000000000000e+00  -6.5084078259358754e-09 1.8458337041393273e-08 0.0000000000000000e+00  -5.8967287608723447e-09 2.0481444304207994e-08 0.0000000000000000e+00  -4.6584806358649545e-09 2.1137302466804516e-08 0.0000000000000000e+00  -2.9987090592301209e-09 1.9650068954975126e-08 0.0000000000000000e+00  -2.0356795749494729e-09 1.5931440263946203e-08 0.0000000000000000e+00  -1.0108837055105429e-09 -1.2743871445281424e-08 0.0000000000000000e+00  -2.4701733784432210e-09 -1.7763927146272994e-08 0.0000000000000000e+00  -4.5589528860687858e-09 -1.9544303460437088e-08 0.0000000000000000e+00  -6.5129430698716760e-09 -1.9348994031375693e-08 0.0000000000000000e+00  -7.9954575174971729e-09 -1.7777097253675454e-08 0.0000000000000000e+00  -8.9718331252285692e-09 -1.5362985362509255e-08 0.0000000000000000e+00  -9.5372850863224242e-09 -1.2497893874506735e-08 0.0000000000000000e+00  -9.8212628125230001e-09 -9.4259386753372293e-09 0.0000000000000000e+00  -9.9388028173809379e-09 -6.2793491024794590e-09 0.0000000000000000e+00  -9.9729969260363651e-09 -3.1176691063064074e-09 0.0000000000000000e+00  -9.9725995971586784e-09 4.0988950311307188e-11 0.0000000000000000e+00  -9.9542274735760701e-09 3.1965099930740409e-09 0.0000000000000000e+00  -9.9041549939978024e-09 6.3474495941707878e-09 0.0000000000000000e+00  -9.7783619534409393e-09 9.4717242813600558e-09 0.0000000000000000e+00  -9.5020153804913981e-09 1.2503557932129262e-08 0.0000000000000000e+00  -8.9723211968534685e-09 1.5304211414601144e-08 0.0000000000000000e+00  -8.0724712568183190e-09 1.7628816489535280e-08 0.0000000000000000e+00  -6.7084425477467799e-09 1.9103175144881073e-08 0.0000000000000000e+00  -4.8829340108033000e-09 1.9237095736053026e-08 0.0000000000000000e+00  -2.8503799965528979e-09 1.7488574061729076e-08 0.0000000000000000e+00  -1.4342157769710086e-09 1.4068935067804649e-08 0.0000000000000000e+00  -6.9887176846709072e-10 -1.0787869124599801e-08 0.0000000000000000e+00  -2.4013148243541872e-09 -1.5411882138177591e-08 0.0000000000000000e+00  -4.6603850470019686e-09 -1.7270483294275747e-08 0.0000000000000000e+00  -6.9173620677692801e-09 -1.7433549484991562e-08 0.0000000000000000e+00  -8.8560186535152829e-09 -1.6326123178242314e-08 0.0000000000000000e+00  -1.0375470730167546e-08 -1.4353065826241548e-08 0.0000000000000000e+00  -1.1486452183287950e-08 -1.1844077775897323e-08 0.0000000000000000e+00  -1.2249031123436054e-08 -9.0327282094415304e-09 0.0000000000000000e+00  -1.2732716581574092e-08 -6.0670847683357127e-09 0.0000000000000000e+00  -1.2995244641366637e-08 -3.0323932288168449e-09 0.0000000000000000e+00  -1.3073567841761083e-08 2.5468627355335623e-11 0.0000000000000000e+00  -1.2981116539736851e-08 3.0789479520916306e-09 0.0000000000000000e+00  -1.2707684600422980e-08 6.0996633838271610e-09 0.0000000000000000e+00  -1.2220690216716287e-08 9.0394809900818747e-09 0.0000000000000000e+00  -1.1468687353006913e-08 1.1810334303000537e-08 0.0000000000000000e+00  -1.0390005405476921e-08 1.4262815937966241e-08 0.0000000000000000e+00  -8.9310424549305723e-09 1.6167601265482329e-08 0.0000000000000000e+00  -7.0787855971375427e-09 1.7210977227183855e-08 0.0000000000000000e+00  -4.9100863816312932e-09 1.7019578367752484e-08 0.0000000000000000e+00  -2.6852828039822209e-09 1.5211497281859718e-08 0.0000000000000000e+00  -1.0076486612306815e-09 1.2158264775078043e-08 0.0000000000000000e+00  -4.7237694160495848e-10 -8.9239345553758410e-09 0.0000000000000000e+00  -2.3069902540640225e-09 -1.3057617208529844e-08 0.0000000000000000e+00  -4.6380965591012392e-09 -1.4841040199125897e-08 0.0000000000000000e+00  -7.0580524061521959e-09 -1.5199591673937221e-08 0.0000000000000000e+00  -9.2778477064158857e-09 -1.4438627478666987e-08 0.0000000000000000e+00  -1.1160403165164319e-08 -1.2861306107395577e-08 0.0000000000000000e+00  -1.2658723370356096e-08 -1.0733175991432851e-08 0.0000000000000000e+00  -1.3777404557759167e-08 -8.2598253806773105e-09 0.0000000000000000e+00  -1.4543258342839745e-08 -5.5861878150583067e-09 0.0000000000000000e+00  -1.4985989623470799e-08 -2.8080988294857838e-09 0.0000000000000000e+00  -1.5127295327517732e-08 1.1714455594183898e-11 0.0000000000000000e+00  -1.4975819567797346e-08 2.8267894731238983e-09 0.0000000000000000e+00  -1.4525952092893644e-08 5.5903003305443494e-09 0.0000000000000000e+00  -1.3759655036541128e-08 8.2386873120532670e-09 0.0000000000000000e+00  -1.2651791539926633e-08 1.0675623346886887e-08 0.0000000000000000e+00  -1.1180491619465634e-08 1.2757507879778423e-08 0.0000000000000000e+00  -9.3444142870721751e-09 1.4284311083883738e-08 0.0000000000000000e+00  -7.1874652364359977e-09 1.5003521022637077e-08 0.0000000000000000e+00  -4.8289269477864941e-09 1.4635010842627856e-08 0.0000000000000000e+00  -2.5188924255424168e-09 1.2908998538390999e-08 0.0000000000000000e+00  -6.9820729041189111e-10 1.0282669732869708e-08 0.0000000000000000e+00  -3.0711067417133020e-10 -7.1595238349790110e-09 0.0000000000000000e+00  -2.2051827906001653e-09 -1.0744234056223756e-08 0.0000000000000000e+00  -4.5505764337731991e-09 -1.2347940194096720e-08 0.0000000000000000e+00  -7.0463669530975079e-09 -1.2784908232167954e-08 0.0000000000000000e+00  -9.4297661366628622e-09 -1.2275278578027956e-08 0.0000000000000000e+00  -1.1544549681116964e-08 -1.1043453082130848e-08 0.0000000000000000e+00  -1.3305532662092678e-08 -9.2965144511812341e-09 0.0000000000000000e+00  -1.4676038475425631e-08 -7.2054447645978669e-09 0.0000000000000000e+00  -1.5647589336531884e-08 -4.9003323294583725e-09 0.0000000000000000e+00  -1.6224385485536402e-08 -2.4754708446437663e-09 0.0000000000000000e+00  -1.6413092541664890e-08 4.2529459207214109e-13 0.0000000000000000e+00  -1.6217328591950621e-08 2.4717643727194377e-09 0.0000000000000000e+00  -1.5636059931050318e-08 4.8829261952219031e-09 0.0000000000000000e+00  -1.4665505256924872e-08 7.1653124508040960e-09 0.0000000000000000e+00  -1.3304701509563176e-08 9.2254649503224681e-09 0.0000000000000000e+00  -1.1565240438317084e-08 1.0935750043044915e-08 0.0000000000000000e+00  -9.4853996712599308e-09 1.2130584545376081e-08 0.0000000000000000e+00  -7.1474318017032407e-09 1.2613168143473078e-08 0.0000000000000000e+00  -4.6944863865720728e-09 1.2176619613719015e-08 0.0000000000000000e+00  -2.3619802191923622e-09 1.0631775861561763e-08 0.0000000000000000e+00  -4.7139860452120825e-10 8.4799107113684959e-09 0.0000000000000000e+00  -1.8802246044841379e-10 -5.4895710319098400e-09 0.0000000000000000e+00  -2.1087777689392542e-09 -8.4917050461418000e-09 0.0000000000000000e+00  -4.4374328673607386e-09 -9.8447509066045572e-09 0.0000000000000000e+00  -6.9573268403365566e-09 -1.0276984085878296e-08 0.0000000000000000e+00  -9.4281454817680478e-09 -9.9458818693600445e-09 0.0000000000000000e+00  -1.1684044956149199e-08 -9.0142871879292406e-09 0.0000000000000000e+00  -1.3615159891749880e-08 -7.6382175732188764e-09 0.0000000000000000e+00  -1.5155544298918298e-08 -5.9527016299386157e-09 0.0000000000000000e+00  -1.6269757518962361e-08 -4.0663408610276536e-09 0.0000000000000000e+00  -1.6941231831448398e-08 -2.0630578251646166e-09 0.0000000000000000e+00  -1.7163765994458329e-08 -8.2946810714092023e-12 0.0000000000000000e+00  -1.6936505765538471e-08 2.0423360920645042e-09 0.0000000000000000e+00  -1.6262349575650992e-08 4.0333983837466811e-09 0.0000000000000000e+00  -1.5149663421109238e-08 5.9001086969802115e-09 0.0000000000000000e+00  -1.3617260139553136e-08 7.5600260351472843e-09 0.0000000000000000e+00  -1.1702539886485064e-08 8.9073266760535893e-09 0.0000000000000000e+00  -9.4722013535556897e-09 9.8117814719612543e-09 0.0000000000000000e+00  -7.0336687162172132e-09 1.0125531806243566e-08 0.0000000000000000e+00  -4.5433378974776350e-09 9.6996387830559197e-09 0.0000000000000000e+00  -2.2224135767224513e-09 8.4045543279938913e-09 0.0000000000000000e+00  -3.0542009372304642e-10 6.7626639843284383e-09 0.0000000000000000e+00  -1.0545995787350154e-10 -3.9008526865409698e-09 0.0000000000000000e+00  -2.0272055053535322e-09 -6.3040992338513846e-09 0.0000000000000000e+00  -4.3264743599992636e-09 -7.3591870532443918e-09 0.0000000000000000e+00  -6.8431135507598269e-09 -7.7287833752589515e-09 0.0000000000000000e+00  -9.3547082952464078e-09 -7.5227067942594954e-09 0.0000000000000000e+00  -1.1691044497298044e-08 -6.8545583498588324e-09 0.0000000000000000e+00  -1.3726755655038531e-08 -5.8359477955298448e-09 0.0000000000000000e+00  -1.5376050800232707e-08 -4.5667512973663353e-09 0.0000000000000000e+00  -1.6584183215294401e-08 -3.1305431386624297e-09 0.0000000000000000e+00  -1.7319041732807716e-08 -1.5948344144820599e-09 0.0000000000000000e+00  -1.7564460706916567e-08 -1.4638905380240363e-11 0.0000000000000000e+00  -1.7316018926068490e-08 1.5618931043787447e-09 0.0000000000000000e+00  -1.6579635019539736e-08 3.0868975499252570e-09 0.0000000000000000e+00  -1.5373005462582152e-08 4.5062898297075536e-09 0.0000000000000000e+00  -1.3729741206445515e-08 5.7542981704806385e-09 0.0000000000000000e+00  -1.1705799524859973e-08 6.7501036754796221e-09 0.0000000000000000e+00  -9.3872977692876828e-09 7.3980102517647504e-09 0.0000000000000000e+00  -6.8977545346564336e-09 7.5930579165467762e-09 0.0000000000000000e+00  -4.4008253205937902e-09 7.2331732602017252e-09 0.0000000000000000e+00  -2.1060252239136672e-09 6.2343695414971707e-09 0.0000000000000000e+00  -1.8598095655915982e-10 5.1286249215228726e-09 0.0000000000000000e+00  -5.3262340791688101e-11 -2.3747404465813822e-09 0.0000000000000000e+00  -1.9673497805715864e-09 -4.1743489042253687e-09 0.0000000000000000e+00  -4.2372811704106275e-09 -4.9011484667007035e-09 0.0000000000000000e+00  -6.7400621628405573e-09 -5.1693378331671210e-09 0.0000000000000000e+00  -9.2664635664289433e-09 -5.0509536420407748e-09 0.0000000000000000e+00  -1.1644718879451736e-08 -4.6187876883037208e-09 0.0000000000000000e+00  -1.3740243892356860e-08 -3.9451