<?xml version="1.0"?>
<VTKFile type="UnstructuredGrid"  version="0.1"  >
<UnstructuredGrid>
<Piece  NumberOfPoints="651" NumberOfCells="1200">
<Points>
<DataArray  type="Float64"  NumberOfComponents="3"  format="ascii">0 0 0  50000 0 0  100000 0 0  150000 0 0  200000 0 0  250000 0 0  300000 0 0  350000 0 0  400000 0 0  450000 0 0  500000 0 0  550000 0 0  600000 0 0  650000 0 0  700000 0 0  750000 0 0  800000 0 0  850000 0 0  900000 0 0  950000 0 0  1000000 0 0  0 50000 0  50000 50000 0  100000 50000 0  150000 50000 0  200000 50000 0  250000 50000 0  300000 50000 0  350000 50000 0  400000 50000 0  450000 50000 0  500000 50000 0  550000 50000 0  600000 50000 0  650000 50000 0  700000 50000 0  750000 50000 0  800000 50000 0  850000 50000 0  900000 50000 0  950000 50000 0  1000000 50000 0  0 100000 0  50000 100000 0  100000 100000 0  150000 100000 0  200000 100000 0  250000 100000 0  300000 100000 0  350000 100000 0  400000 100000 0  450000 100000 0  500000 100000 0  550000 100000 0  600000 100000 0  650000 100000 0  700000 100000 0  750000 100000 0  800000 100000 0  850000 100000 0  900000 100000 0  950000 100000 0  1000000 100000 0  0 150000 0  50000 150000 0  100000 150000 0  150000 150000 0  200000 150000 0  250000 150000 0  300000 150000 0  350000 150000 0  400000 150000 0  450000 150000 0  500000 150000 0  550000 150000 0  600000 150000 0  650000 150000 0  700000 150000 0  750000 150000 0  800000 150000 0  850000 150000 0  900000 150000 0  950000 150000 0  1000000 150000 0  0 200000 0  50000 200000 0  100000 200000 0  150000 200000 0  200000 200000 0  250000 200000 0  300000 200000 0  350000 200000 0  400000 200000 0  450000 200000 0  500000 200000 0  550000 200000 0  600000 200000 0  650000 200000 0  700000 200000 0  750000 200000 0  800000 200000 0  850000 200000 0  900000 200000 0  950000 200000 0  1000000 200000 0  0 250000 0  50000 250000 0  100000 250000 0  150000 250000 0  200000 250000 0  250000 250000 0  300000 250000 0  350000 250000 0  400000 250000 0  450000 250000 0  500000 250000 0  550000 250000 0  600000 250000 0  650000 250000 0  700000 250000 0  750000 250000 0  800000 250000 0  850000 250000 0  900000 250000 0  950000 250000 0  1000000 250000 0  0 300000 0  50000 300000 0  100000 300000 0  150000 300000 0  200000 300000 0  250000 300000 0  300000 300000 0  350000 300000 0  400000 300000 0  450000 300000 0  500000 300000 0  550000 300000 0  600000 300000 0  650000 300000 0  700000 300000 0  750000 300000 0  800000 300000 0  850000 300000 0  900000 300000 0  950000 300000 0  1000000 300000 0  0 350000 0  50000 350000 0  100000 350000 0  150000 350000 0  200000 350000 0  250000 350000 0  300000 350000 0  350000 350000 0  400000 350000 0  450000 350000 0  500000 350000 0  550000 350000 0  600000 350000 0  650000 350000 0  700000 350000 0  750000 350000 0  800000 350000 0  850000 350000 0  900000 350000 0  950000 350000 0  1000000 350000 0  0 400000 0  50000 400000 0  100000 400000 0  150000 400000 0  200000 400000 0  250000 400000 0  300000 400000 0  350000 400000 0  400000 400000 0  450000 400000 0  500000 400000 0  550000 400000 0  600000 400000 0  650000 400000 0  700000 400000 0  750000 400000 0  800000 400000 0  850000 400000 0  900000 400000 0  950000 400000 0  1000000 400000 0  0 450000 0  50000 450000 0  100000 450000 0  150000 450000 0  200000 450000 0  250000 450000 0  300000 450000 0  350000 450000 0  400000 450000 0  450000 450000 0  500000 450000 0  550000 450000 0  600000 450000 0  650000 450000 0  700000 450000 0  750000 450000 0  800000 450000 0  850000 450000 0  900000 450000 0  950000 450000 0  1000000 450000 0  0 500000 0  50000 500000 0  100000 500000 0  150000 500000 0  200000 500000 0  250000 500000 0  300000 500000 0  350000 500000 0  400000 500000 0  450000 500000 0  500000 500000 0  550000 500000 0  600000 500000 0  650000 500000 0  700000 500000 0  750000 500000 0  800000 500000 0  850000 500000 0  900000 500000 0  950000 500000 0  1000000 500000 0  0 550000 0  50000 550000 0  100000 550000 0  150000 550000 0  200000 550000 0  250000 550000 0  300000 550000 0  350000 550000 0  400000 550000 0  450000 550000 0  500000 550000 0  550000 550000 0  600000 550000 0  650000 550000 0  700000 550000 0  750000 550000 0  800000 550000 0  850000 550000 0  900000 550000 0  950000 550000 0  1000000 550000 0  0 600000 0  50000 600000 0  100000 600000 0  150000 600000 0  200000 600000 0  250000 600000 0  300000 600000 0  350000 600000 0  400000 600000 0  450000 600000 0  500000 600000 0  550000 600000 0  600000 600000 0  650000 600000 0  700000 600000 0  750000 600000 0  800000 600000 0  850000 600000 0  900000 600000 0  950000 600000 0  1000000 600000 0  0 650000 0  50000 650000 0  100000 650000 0  150000 650000 0  200000 650000 0  250000 650000 0  300000 650000 0  350000 650000 0  400000 650000 0  450000 650000 0  500000 650000 0  550000 650000 0  600000 650000 0  650000 650000 0  700000 650000 0  750000 650000 0  800000 650000 0  850000 650000 0  900000 650000 0  950000 650000 0  1000000 650000 0  0 700000 0  50000 700000 0  100000 700000 0  150000 700000 0  200000 700000 0  250000 700000 0  300000 700000 0  350000 700000 0  400000 700000 0  450000 700000 0  500000 700000 0  550000 700000 0  600000 700000 0  650000 700000 0  700000 700000 0  750000 700000 0  800000 700000 0  850000 700000 0  900000 700000 0  950000 700000 0  1000000 700000 0  0 750000 0  50000 750000 0  100000 750000 0  150000 750000 0  200000 750000 0  250000 750000 0  300000 750000 0  350000 750000 0  400000 750000 0  450000 750000 0  500000 750000 0  550000 750000 0  600000 750000 0  650000 750000 0  700000 750000 0  750000 750000 0  800000 750000 0  850000 750000 0  900000 750000 0  950000 750000 0  1000000 750000 0  0 800000 0  50000 800000 0  100000 800000 0  150000 800000 0  200000 800000 0  250000 800000 0  300000 800000 0  350000 800000 0  400000 800000 0  450000 800000 0  500000 800000 0  550000 800000 0  600000 800000 0  650000 800000 0  700000 800000 0  750000 800000 0  800000 800000 0  850000 800000 0  900000 800000 0  950000 800000 0  1000000 800000 0  0 850000 0  50000 850000 0  100000 850000 0  150000 850000 0  200000 850000 0  250000 850000 0  300000 850000 0  350000 850000 0  400000 850000 0  450000 850000 0  500000 850000 0  550000 850000 0  600000 850000 0  650000 850000 0  700000 850000 0  750000 850000 0  800000 850000 0  850000 850000 0  900000 850000 0  950000 850000 0  1000000 850000 0  0 900000 0  50000 900000 0  100000 900000 0  150000 900000 0  200000 900000 0  250000 900000 0  300000 900000 0  350000 900000 0  400000 900000 0  450000 900000 0  500000 900000 0  550000 900000 0  600000 900000 0  650000 900000 0  700000 900000 0  750000 900000 0  800000 900000 0  850000 900000 0  900000 900000 0  950000 900000 0  1000000 900000 0  0 950000 0  50000 950000 0  100000 950000 0  150000 950000 0  200000 950000 0  250000 950000 0  300000 950000 0  350000 950000 0  400000 950000 0  450000 950000 0  500000 950000 0  550000 950000 0  600000 950000 0  650000 950000 0  700000 950000 0  750000 950000 0  800000 950000 0  850000 950000 0  900000 950000 0  950000 950000 0  1000000 950000 0  0 1000000 0  50000 1000000 0  100000 1000000 0  150000 1000000 0  200000 1000000 0  250000 1000000 0  300000 1000000 0  350000 1000000 0  400000 1000000 0  450000 1000000 0  500000 1000000 0  550000 1000000 0  600000 1000000 0  650000 1000000 0  700000 1000000 0  750000 1000000 0  800000 1000000 0  850000 1000000 0  900000 1000000 0  950000 1000000 0  1000000 1000000 0  0 1050000 0  50000 1050000 0  100000 1050000 0  150000 1050000 0  200000 1050000 0  250000 1050000 0  300000 1050000 0  350000 1050000 0  400000 1050000 0  450000 1050000 0  500000 1050000 0  550000 1050000 0  600000 1050000 0  650000 1050000 0  700000 1050000 0  750000 1050000 0  800000 1050000 0  850000 1050000 0  900000 1050000 0  950000 1050000 0  1000000 1050000 0  0 1100000 0  50000 1100000 0  100000 1100000 0  150000 1100000 0  200000 1100000 0  250000 1100000 0  300000 1100000 0  350000 1100000 0  400000 1100000 0  450000 1100000 0  500000 1100000 0  550000 1100000 0  600000 1100000 0  650000 1100000 0  700000 1100000 0  750000 1100000 0  800000 1100000 0  850000 1100000 0  900000 1100000 0  950000 1100000 0  1000000 1100000 0  0 1150000 0  50000 1150000 0  100000 1150000 0  150000 1150000 0  200000 1150000 0  250000 1150000 0  300000 1150000 0  350000 1150000 0  400000 1150000 0  450000 1150000 0  500000 1150000 0  550000 1150000 0  600000 1150000 0  650000 1150000 0  700000 1150000 0  750000 1150000 0  800000 1150000 0  850000 1150000 0  900000 1150000 0  950000 1150000 0  1000000 1150000 0  0 1200000 0  50000 1200000 0  100000 1200000 0  150000 1200000 0  200000 1200000 0  250000 1200000 0  300000 1200000 0  350000 1200000 0  400000 1200000 0  450000 1200000 0  500000 1200000 0  550000 1200000 0  600000 1200000 0  650000 1200000 0  700000 1200000 0  750000 1200000 0  800000 1200000 0  850000 1200000 0  900000 1200000 0  950000 1200000 0  1000000 1200000 0  0 1250000 0  50000 1250000 0  100000 1250000 0  150000 1250000 0  200000 1250000 0  250000 1250000 0  300000 1250000 0  350000 1250000 0  400000 1250000 0  450000 1250000 0  500000 1250000 0  550000 1250000 0  600000 1250000 0  650000 1250000 0  700000 1250000 0  750000 1250000 0  800000 1250000 0  850000 1250000 0  900000 1250000 0  950000 1250000 0  1000000 1250000 0  0 1300000 0  50000 1300000 0  100000 1300000 0  150000 1300000 0  200000 1300000 0  250000 1300000 0  300000 1300000 0  350000 1300000 0  400000 1300000 0  450000 1300000 0  500000 1300000 0  550000 1300000 0  600000 1300000 0  650000 1300000 0  700000 1300000 0  750000 1300000 0  800000 1300000 0  850000 1300000 0  900000 1300000 0  950000 1300000 0  1000000 1300000 0  0 1350000 0  50000 1350000 0  100000 1350000 0  150000 1350000 0  200000 1350000 0  250000 1350000 0  300000 1350000 0  350000 1350000 0  400000 1350000 0  450000 1350000 0  500000 1350000 0  550000 1350000 0  600000 1350000 0  650000 1350000 0  700000 135
[...]
<PointData  Scalars="f_1511"> 
<DataArray  type="Float64"  Name="f_1511"  format="ascii">-8.0222089572518822e+00  -8.0218977665120175e+00  -8.0203701525082511e+00  -8.0176212278030015e+00  -8.0137217242190086e+00  -8.0087750169958394e+00  -8.0029123066874224e+00  -7.9962888518883357e+00  -7.9890797784151939e+00  -7.9814753847029962e+00  -7.9736760602961159e+00  -7.9658869549222198e+00  -7.9583125372399488e+00  -7.9511511840611542e+00  -7.9445899461059390e+00  -7.9387996558865730e+00  -7.9339306176004616e+00  -7.9301093513904473e+00  -7.9274371383521665e+00  -7.9259850095806037e+00  -7.9256707811379066e+00  -8.0225076565301396e+00  -8.0222032912390251e+00  -8.0206538625891746e+00  -8.0178866010418268e+00  -8.0139665940518547e+00  -8.0089953158115552e+00  -8.0031035159591024e+00  -7.9964467101486676e+00  -7.9892006429313724e+00  -7.9815564346857064e+00  -7.9737154178967815e+00  -7.9658837525601154e+00  -7.9582669412709599e+00  -7.9510643754252293e+00  -7.9444640483546642e+00  -7.9386375720508706e+00  -7.9337356160230419e+00  -7.9298837443223578e+00  -7.9271778502110424e+00  -7.9256748428928514e+00  -7.9253604818722447e+00  -8.0239453519668480e+00  -8.0236616381889050e+00  -8.0220763252522840e+00  -8.0192254661577582e+00  -8.0151869568226441e+00  -8.0100674296095065e+00  -8.0040015731421441e+00  -7.9971490888263128e+00  -7.9896904668658779e+00  -7.9818220771267852e+00  -7.9737508517293154e+00  -7.9656887299330164e+00  -7.9578470033972248e+00  -7.9504306958480537e+00  -7.9436331149262429e+00  -7.9376307225597502e+00  -7.9325784837135238e+00  -7.9286058547962854e+00  -7.9258134165189418e+00  -7.9242686975142487e+00  -7.9239862125127889e+00  -8.0265045085829225e+00  -8.0262235356569729e+00  -8.0245782964678920e+00  -8.0215916341058495e+00  -8.0173494030145065e+00  -8.0119680187898545e+00  -8.0055911021703068e+00  -7.9983872970307752e+00  -7.9905465089928240e+00  -7.9822750761049015e+00  -7.9737903326841462e+00  -7.9653148479972433e+00  -7.9570705348213266e+00  -7.9492727917222137e+00  -7.9421248419601911e+00  -7.9358124535676904e+00  -7.9304992690242049e+00  -7.9263229970340321e+00  -7.9233923467160103e+00  -7.9217814328644298e+00  -7.9214983024260279e+00  -8.0301460237866049e+00  -8.0298566526571200e+00  -8.0281172620292498e+00  -8.0249392268568407e+00  -8.0204118239934186e+00  -8.0146614826469413e+00  -8.0078439186621999e+00  -8.0001408479808624e+00  -7.9917560717441845e+00  -7.9829105443502115e+00  -7.9738367433282331e+00  -7.9647726441174047e+00  -7.9559555299562685e+00  -7.9476158293583392e+00  -7.9399711681638276e+00  -7.9332208411995007e+00  -7.9275409285112133e+00  -7.9230801861481090e+00  -7.9199560436002079e+00  -7.9182457837411242e+00  -7.9179465439850256e+00  -8.0348478598687283e+00  -8.0345417067207041e+00  -8.0326726070236489e+00  -8.0292443123046215e+00  -8.0243495671685494e+00  -8.0181251584572362e+00  -8.0107410238014651e+00  -8.0023953354030528e+00  -7.9933098449649034e+00  -7.9837245216516193e+00  -7.9738915550196436e+00  -7.9640689569993883e+00  -7.9545139852863889e+00  -7.9454765866409183e+00  -7.9371930517718852e+00  -7.9298800781059562e+00  -7.9237294141858730e+00  -7.9189030522555921e+00  -7.9155279006770014e+00  -7.9136842554446876e+00  -7.9133604320886182e+00  -8.0406037979723539e+00  -8.0402737016312784e+00  -8.0382396304792127e+00  -8.0345006477150598e+00  -8.0291547995057826e+00  -8.0223507289311051e+00  -8.0142747944606878e+00  -8.0051447142055476e+00  -7.9952039402954709e+00  -7.9847156120878866e+00  -7.9739560050539051e+00  -7.9632076279427961e+00  -7.9527521541352604e+00  -7.9428633670618076e+00  -7.9338002949996325e+00  -7.9258007053853525e+00  -7.9190750790673032e+00  -7.9138009241276128e+00  -7.9101161662390016e+00  -7.9081055432964042e+00  -7.9077507276827923e+00  -8.0474201970257351e+00  -8.0470595049717613e+00  -8.0448254692035128e+00  -8.0407143768063385e+00  -8.0348319465486426e+00  -8.0273409763515460e+00  -8.0184468642349351e+00  -8.0083900316887462e+00  -7.9974392843603450e+00  -7.9858849362071282e+00  -7.9740315597773179e+00  -7.9621904604849876e+00  -7.9506720170589213e+00  -7.9397780325110521e+00  -7.9297942390501444e+00  -7.9209830951503699e+00  -7.9135769593909853e+00  -7.9077714547761779e+00  -7.9037176705600292e+00  -7.9015067419056502e+00  -7.9011151333510519e+00  -8.0553123920453320e+00  -8.0549146094268256e+00  -8.0524454727652302e+00  -8.0478997584259258e+00  -8.0413933534730937e+00  -8.0331059808704914e+00  -8.0232651145146363e+00  -8.0121372550928829e+00  -8.0000202608304676e+00  -7.9872355608292462e+00  -7.9741201126631269e+00  -7.9610181725609532e+00  -7.9482729763636124e+00  -7.9362184278045023e+00  -7.9251708931310336e+00  -7.9154212054332485e+00  -7.9072269430007198e+00  -7.9008047854231194e+00  -7.8963215313054018e+00  -7.8938768171537621e+00  -7.8934427810066312e+00  -8.0643008278061981e+00  -8.0638594216728965e+00  -8.0611194894484850e+00  -8.0560752440872925e+00  -8.0488553018210780e+00  -8.0396594101050241e+00  -8.0287405199067035e+00  -8.0163948440761121e+00  -8.0029531000718439e+00  -7.9887717488741092e+00  -7.9742241069920352e+00  -7.9596913794338402e+00  -7.9455536615621396e+00  -7.9321809426993308e+00  -7.9199241497380575e+00  -7.9091062910577321e+00  -7.9000137500367549e+00  -7.8928875365456399e+00  -7.8879130120831569e+00  -7.8852005054024090e+00  -7.8847184072927377e+00  -8.0744067819491061e+00  -8.0739150563403541e+00  -8.0708677475558659e+00  -8.0652593636960592e+00  -8.0572339570247529e+00  -8.0470147204616893e+00  -8.0348838372004234e+00  -8.0211711299420507e+00  -8.0062440964581967e+00  -7.9904981069173511e+00  -7.9743466533008052e+00  -7.9582116703777031e+00  -7.9425139061318673e+00  -7.9276632832939500e+00  -7.9140492020414559e+00  -7.9020307817096116e+00  -7.8919270693098760e+00  -7.8840070312925112e+00  -7.8784777674319351e+00  -7.8754626425331846e+00  -7.8749267708986235e+00  -8.0856474823723232e+00  -8.0850984900410996e+00  -8.0817060992138217e+00  -8.0754660589966818e+00  -8.0665408539208183e+00  -8.0551809507010557e+00  -8.0417019199895474e+00  -8.0264713693515102e+00  -8.0098975854364713e+00  -7.9924186138981552e+00  -7.9744916708750235e+00  -7.9565828530454885e+00  -7.9391570159896396e+00  -7.9226676252566035e+00  -7.9075463967371977e+00  -7.8941926261718978e+00  -7.8829621951304727e+00  -7.8741560764469183e+00  -7.8680067020361912e+00  -7.8646530994705586e+00  -7.8640576253830261e+00  -8.0980303968052070e+00  -8.0974168707462653e+00  -8.0936403965904535e+00  -8.0866991664173344e+00  -8.0767775795294252e+00  -8.0641577779787603e+00  -8.0491933816096939e+00  -8.0322942655711334e+00  -8.0139135481831421e+00  -7.9945354734804708e+00  -7.9746640693369502e+00  -7.9548124533760829e+00  -7.9354924864917278e+00  -7.9172043699014285e+00  -7.9004257989388398e+00  -7.8856004178366073e+00  -7.8731254877184851e+00  -7.8633385921293026e+00  -7.8565016823969565e+00  -7.8527725453626829e+00  -7.8521114998261847e+00  -8.1115464449091377e+00  -8.1108607378213318e+00  -8.1066597403351572e+00  -8.0989457469296156e+00  -8.0879293143481110e+00  -8.0739294927252878e+00  -8.0573432950533057e+00  -8.0386277073954009e+00  -8.0182846737450113e+00  -7.9968477093446797e+00  -7.9748699824342051e+00  -7.9529135744425909e+00  -7.9315393561206582e+00  -7.9112967636536382e+00  -7.8927127826384984e+00  -7.8762796411800791e+00  -7.8624409915312876e+00  -7.8515763926017783e+00  -7.8439823657273093e+00  -7.8398392882530414e+00  -7.8391065432127434e+00  -8.1261618520108208e+00  -8.1253958708261411e+00  -8.1207282967175978e+00  -8.1121679201590187e+00  -8.0999568551023238e+00  -8.0844575083232630e+00  -8.0661165756763022e+00  -8.0454434354320927e+00  -8.0229926770207332e+00  -7.9993494051360035e+00  -7.9751170653078800e+00  -7.9509072340896596e+00  -7.9273304171123158e+00  -7.9049866850738226e+00  -7.8844550091744310e+00  -7.8662804267236330e+00  -7.8509585895498741e+00  -7.8389174616670614e+00  -7.8304944505851095e+00  -7.8258974758124982e+00  -7.8250867135128157e+00  -8.1418083263785928e+00  -8.1409534434212230e+00  -8.1357753245796420e+00  -8.1262927939654688e+00  -8.1127866721449227e+00  -8.0956709550321140e+00  -8.0754496351399556e+00  -8.0526903011130155e+00  -8.0280036412669240e+00  -8.0020274758350070e+00  -7.9754148662074691e+00  -7.9488253163891329e+00  -7.9229175353629229e+00  -7.8983419529486474e+00  -7.8757312201536385e+00  -7.8556872746185364e+00  -7.8387641446974978e+00  -7.8254461322676239e+00  -7.8161197078339697e+00  -7.8110269801519223e+00  -7.8101316294361913e+00  -8.1583711946801500e+00  -8.1574181059252044e+00  -8.1516829793622687e+00  -8.1411999869185347e+00  -8.1262984550548971e+00  -8.1074548191134195e+00  -8.0852398290217877e+00  -8.0602857424500236e+00  -8.0332621320389599e+00  -8.0048588477413016e+00  -7.9757752818399252e+00  -7.9467142794403900e+00  -7.9183783554233180e+00  -7.8914655562740865e+00  -7.8666623458955609e+00  -7.8446313036402220e+00  -7.8259921842562425e+00  -7.8112956754290908e+00  -7.8009882253983980e+00  -7.7953553464346506e+00  -7.7943684539017086e+00  -8.1756750643700666e+00  -8.1746135456975253e+00  -8.1682713551605701e+00  -8.1567061073683842e+00  -8.1403094663618134e+00  -8.1196349847748071e+00  -8.0953321627407977e+00  -8.0681050833496091e+00  -8.0386838339772382e+00  -8.0078069295718510e+00  -7.9762130996984038e+00  -7.9446397478466633e+00  -7.9138246603003619e+00  -7.8845072313427949e+00  -7.8574255017783363e+00  -7.8333057003181255e+00  -7.8128418273602325e+00  -7.7966639427248792e+00  -7.7852934103164424e+00  -7.7790722661857741e+00  -7.7779862531062642e+00  -8.1934664797840906e+00  -8.1922849579404193e+00  -8.1852800595167530e+00  -8.1725453544118434e+00  -8.1545548478905374e+00  -8.1319594346576647e+00  -8.1055027071489985e+00  -8.0759683141996668e+00  -8.0441465299973522e+00  -8.0108172967963647e+00  -7.9767466166553662e+00  -7.9426920556388163e+00  -7.9094125785522884e+00  -7.8776777688421706e+00  -7.8482714813153844e+00  -7.8219851731404306e+00  -7.7995968537497316e+00  -7.7818329171204450e+00  -7.7693104653757086e+00  -7.7624471654342306e+00  -7.7612533945480617e+00  -8.2113928657528934e+00  -8.2100776592691229e+00  -8.2023453352836242e+00  -8.1883450976265486e+00  -8.1686627986459808e+00  -8.1440748031989436e+00  -8.1154382802128815e+00  -8.0836242139214853e+00  -8.0494794421278684e+00  -8.0138126199118620e+00  -7.9773982940789550e+00  -7.9409926476395460e+00  -7.9053546068296487e+00  -7.8712662403128357e+00  -7.8395462896259449e+00  -7.8110503332235997e+00  -7.7866510852421857e+00  -7.7671933618775411e+00  -7.7534193511268938e+00  -7.7458507197431654e+00  -7.7445387529531979e+00  -8.2289767399087719e+00  -8.2275107084430221e+00  -8.2189712413907987e+00  -8.2035947939897849e+00  -8.1821232692198009e+00  -8.1554975475352744e+00  -8.1247123197476849e+00  -8.0907321771776175e+00  -8.0544513986339918e+00  -8.0166871012756840e+00  -7.9781953554624705e+00  -7.9397009182247231e+00  -7.9019329147923241e+00  -7.8656598332048802e+00  -7.8317169583133808e+00  -7.8010179576375647e+00  -7.7745406249290951e+00  -7.7532763123265642e+00  -7.7381337678923217e+00  -7.7297815111340915e+00  -7.7283378666543303e+00  -8.2455835877384001e+00  -8.2439436886821245e+00  -8.2344924618249724e+00  -8.2176057785512331e+00  -8.1942485425146252e+00  -8.1655794103228967e+00  -8.1327577793030006e+00  -8.0968431661594149e+00  -8.0587591583390648e+00  -8.0193011264951899e+00  -7.9791701395596286e+00  -7.9390204552730506e+00  -7.8995124161987409e+00  -7.8613649054154866e+00  -7.8254010731693509e+00  -7.7925778767383580e+00  -7.7639849830603991e+00  -7.7407941038550074e+00  -7.7241386690780498e+00  -7.7148998038211660e+00  -7.7133058921724071e+00  -8.2603806658787367e+00  -8.2585333759007771e+00  -8.2480244840579910e+00  -8.2294581263555742e+00  -8.2041239946120239e+00  -8.1734680603671954e+00  -8.1388398249961842e+00  -8.1013832009573825e+00  -8.0620187425412180e+00  -8.0214775842450017e+00  -7.9803598781287768e+00  -7.9392026306625407e+00  -7.8985503380648838e+00  -7.8590257665496237e+00  -7.8213976067237292e+00  -7.7866363568801402e+00  -7.7559396356106181e+00  -7.7306952713328210e+00  -7.7123407076369723e+00  -7.7020719077965429e+00  -7.7003005791142272e+00  -8.2722817908791715e+00  -8.2701739881786231e+00  -8.2583932595951417e+00  -8.2379287567543162e+00  -8.2105481161304503e+00  -8.1780668121217932e+00  -8.1420349463372919e+00  -8.1036462449083650e+00  -8.0637650200367990e+00  -8.0230024337571226e+00  -7.9818053762300867e+00  -7.9405439469800845e+00  -7.8995961891713256e+00  -7.8594339000425810e+00  -7.8207127906840430e+00  -7.7843633551508766e+00  -7.7516627058389620e+00  -7.7242404618955165e+00  -7.7039398130897254e+00  -7.6924316420011349e+00  -7.6904412656768386e+00  -8.2798687696038975e+00  -8.2774078567373266e+00  -8.2640292073952608e+00  -8.2413925829413266e+00  -8.2119644782298788e+00  -8.1780042091535634e+00  -8.1412300978086751e+00  -8.1028086783036564e+00  -8.0634680509287016e+00  -8.0236335203099589e+00  -7.9835478832227809e+00  -7.9433716458815287e+00  -7.9032720330659307e+00  -7.8635140819189369e+00  -7.8245671261524334e+00  -7.7872345940899681e+00  -7.7527967136472062e+00  -7.7231110118142787e+00  -7.7005380149419818e+00  -7.6874719740823005e+00  -7.6851958043208448e+00  -8.2812711091694347e+00  -8.2782765273538441e+00  -8.2627963963293620e+00  -8.2376886766297854e+00  -8.2064000136881035e+00  -8.1716388609422363e+00  -8.1351670580407820e+00  -8.0979845277114268e+00  -8.0605780478372129e+00  -8.0231228565109518e+00  -7.9856233766298095e+00  -7.9480105127580458e+00  -7.9102185988018707e+00  -7.8722648988754829e+00  -7.8343555617899137e+00  -7.7970436995952621e+00  -7.7614574797328792e+00  -7.7295675722550747e+00  -7.7043187910107589e+00  -7.6891953104888424e+00  -7.6865208770351723e+00  -8.2739654341286144e+00  -8.2700375273625202e+00  -8.2517045112274303e+00  -8.2239585760679965e+00  -8.1914564257623894e+00  -8.1571529175397277e+00  -8.1225731376461550e+00  -8.0883466469453129e+00  -8.0546117447643368e+00  -8.0212572374556057e+00  -7.9880536702172540e+00  -7.9547242617559863e+00  -7.9209908891198708e+00  -7.8866219406783005e+00  -7.8515104503614079e+00  -7.8158239306379391e+00  -7.7802893239807753e+00  -7.7466746109588458e+00  -7.7183683211143563e+00  -7.7003914363846713e+00  -7.6971159304445020e+00  -8.2543933710459942e+00  -8.2485489344823240e+00  -8.2264358721064443e+00  -8.1965368735840709e+00  -8.1644795358908979e+00  -8.1328317374459633e+00  -8.1024324423210459e+00  -8.0733360168203188e+00  -8.0452858527299629e+00  -8.0179173046638912e+00  -7.9908338499769753e+00  -7.9636297361068884e+00  -7.9358935086712421e+00  -7.9072116632588498e+00  -7.8771926899460158e+00  -7.8455508958366673e+00  -7.8123412864301125e+00  -7.7785456233243844e+00  -7.7472844199286151e+00  -7.7252365659236695e+00  -7.7209549262479671e+00  -8.2170058030625093e+00  -8.2068220907945211e+00  -8.1807457596539752e+00  -8.1512222028638703e+00  -8.1231802770731978e+00  -8.0976657254493514e+00  -8.0744348221671078e+00  -8.0529507244610343e+00  -8.0326779055264499e+00  -8.0131405397410838e+00  -7.9939126107326874e+00  -7.9745912585945939e+00  -7.9547665760924913e+00  -7.9339899787241848e+00  -7.9117427932766802e+00  -7.8874173795050169e+00  -7.8603660336633308e+00  -7.8302245277448961e+00  -7.7982116648746089e+00  -7.7708679565009167e+00  -7.7646181265367957e+00  -8.1506020254900307e+00  -8.1317762087486987e+00  -8.1066607108147881e+00  -8.0848771433080238e+00  -8.0671245324673926e+00  -8.0523308661910971e+00  -8.0395204337260910e+00  -8.0280108587137562e+00  -8.0173305053683510e+00  -8.0071331257977132e+00  -7.9971397696521365e+00  -7.9870991076877544e+00  -7.9767555989462524e+00  -7.9658165286339573e+00  -7.9539080408675042e+00  -7.9405055287036062e+00  -7.9248165451496435e+00  -7.9056124623810318e+00  -7.8812547979703993e+00  -7.8521349901901889e+00  -7.8417007125165812e+00  -8.0000000000000000e+00  -8.0000000000000000e+00  -8.0000000000000000e+00  -8.0000000000000000e+00  -8.0000000000000000e+00  -8.0000000000000000e+00  -8.0000000000000000e+00  -8.0000000000000000e+00  -8.0000000000000000e+00  -8.0000000000000000e+00  -8.0000000000000000e+00  -8.0000000000000000e+00  -8.0000000000000000e+00  -8.0000000000000000e+00  -8.0000000000000000e+00  -8.0000000000000000e+00  -8.0000000000000000e+00  -8.0000000000000000e+00  -8.0000000000000000e+00  -8.0000000000000000e+00  -8.0000000000000000e+00  </DataArray> 
</PointData> 
</Piece>
</UnstructuredGrid>
</VTKFile>