<?xml version="1.0"?>
<VTKFile type="UnstructuredGrid"  version="0.1"  >
<UnstructuredGrid>
<Piece  NumberOfPoints="651" NumberOfCells="1200">
<Points>
<DataArray  type="Float64"  NumberOfComponents="3"  format="ascii">0 0 0  50000 0 0  100000 0 0  150000 0 0  200000 0 0  250000 0 0  300000 0 0  350000 0 0  400000 0 0  450000 0 0  500000 0 0  550000 0 0  600000 0 0  650000 0 0  700000 0 0  750000 0 0  800000 0 0  850000 0 0  900000 0 0  950000 0 0  1000000 0 0  0 50000 0  50000 50000 0  100000 50000 0  150000 50000 0  200000 50000 0  250000 50000 0  300000 50000 0  350000 50000 0  400000 50000 0  450000 50000 0  500000 50000 0  550000 50000 0  600000 50000 0  650000 50000 0  700000 50000 0  750000 50000 0  800000 50000 0  850000 50000 0  900000 50000 0  950000 50000 0  1000000 50000 0  0 100000 0  50000 100000 0  100000 100000 0  150000 100000 0  200000 100000 0  250000 100000 0  300000 100000 0  350000 100000 0  400000 100000 0  450000 100000 0  500000 100000 0  550000 100000 0  600000 100000 0  650000 100000 0  700000 100000 0  750000 100000 0  800000 100000 0  850000 100000 0  900000 100000 0  950000 100000 0  1000000 100000 0  0 150000 0  50000 150000 0  100000 150000 0  150000 150000 0  200000 150000 0  250000 150000 0  300000 150000 0  350000 150000 0  400000 150000 0  450000 150000 0  500000 150000 0  550000 150000 0  600000 150000 0  650000 150000 0  700000 150000 0  750000 150000 0  800000 150000 0  850000 150000 0  900000 150000 0  950000 150000 0  1000000 150000 0  0 200000 0  50000 200000 0  100000 200000 0  150000 200000 0  200000 200000 0  250000 200000 0  300000 200000 0  350000 200000 0  400000 200000 0  450000 200000 0  500000 200000 0  550000 200000 0  600000 200000 0  650000 200000 0  700000 200000 0  750000 200000 0  800000 200000 0  850000 200000 0  900000 200000 0  950000 200000 0  1000000 200000 0  0 250000 0  50000 250000 0  100000 250000 0  150000 250000 0  200000 250000 0  250000 250000 0  300000 250000 0  350000 250000 0  400000 250000 0  450000 250000 0  500000 250000 0  550000 250000 0  600000 250000 0  650000 250000 0  700000 250000 0  750000 250000 0  800000 250000 0  850000 250000 0  900000 250000 0  950000 250000 0  1000000 250000 0  0 300000 0  50000 300000 0  100000 300000 0  150000 300000 0  200000 300000 0  250000 300000 0  300000 300000 0  350000 300000 0  400000 300000 0  450000 300000 0  500000 300000 0  550000 300000 0  600000 300000 0  650000 300000 0  700000 300000 0  750000 300000 0  800000 300000 0  850000 300000 0  900000 300000 0  950000 300000 0  1000000 300000 0  0 350000 0  50000 350000 0  100000 350000 0  150000 350000 0  200000 350000 0  250000 350000 0  300000 350000 0  350000 350000 0  400000 350000 0  450000 350000 0  500000 350000 0  550000 350000 0  600000 350000 0  650000 350000 0  700000 350000 0  750000 350000 0  800000 350000 0  850000 350000 0  900000 350000 0  950000 350000 0  1000000 350000 0  0 400000 0  50000 400000 0  100000 400000 0  150000 400000 0  200000 400000 0  250000 400000 0  300000 400000 0  350000 400000 0  400000 400000 0  450000 400000 0  500000 400000 0  550000 400000 0  600000 400000 0  650000 400000 0  700000 400000 0  750000 400000 0  800000 400000 0  850000 400000 0  900000 400000 0  950000 400000 0  1000000 400000 0  0 450000 0  50000 450000 0  100000 450000 0  150000 450000 0  200000 450000 0  250000 450000 0  300000 450000 0  350000 450000 0  400000 450000 0  450000 450000 0  500000 450000 0  550000 450000 0  600000 450000 0  650000 450000 0  700000 450000 0  750000 450000 0  800000 450000 0  850000 450000 0  900000 450000 0  950000 450000 0  1000000 450000 0  0 500000 0  50000 500000 0  100000 500000 0  150000 500000 0  200000 500000 0  250000 500000 0  300000 500000 0  350000 500000 0  400000 500000 0  450000 500000 0  500000 500000 0  550000 500000 0  600000 500000 0  650000 500000 0  700000 500000 0  750000 500000 0  800000 500000 0  850000 500000 0  900000 500000 0  950000 500000 0  1000000 500000 0  0 550000 0  50000 550000 0  100000 550000 0  150000 550000 0  200000 550000 0  250000 550000 0  300000 550000 0  350000 550000 0  400000 550000 0  450000 550000 0  500000 550000 0  550000 550000 0  600000 550000 0  650000 550000 0  700000 550000 0  750000 550000 0  800000 550000 0  850000 550000 0  900000 550000 0  950000 550000 0  1000000 550000 0  0 600000 0  50000 600000 0  100000 600000 0  150000 600000 0  200000 600000 0  250000 600000 0  300000 600000 0  350000 600000 0  400000 600000 0  450000 600000 0  500000 600000 0  550000 600000 0  600000 600000 0  650000 600000 0  700000 600000 0  750000 600000 0  800000 600000 0  850000 600000 0  900000 600000 0  950000 600000 0  1000000 600000 0  0 650000 0  50000 650000 0  100000 650000 0  150000 650000 0  200000 650000 0  250000 650000 0  300000 650000 0  350000 650000 0  400000 650000 0  450000 650000 0  500000 650000 0  550000 650000 0  600000 650000 0  650000 650000 0  700000 650000 0  750000 650000 0  800000 650000 0  850000 650000 0  900000 650000 0  950000 650000 0  1000000 650000 0  0 700000 0  50000 700000 0  100000 700000 0  150000 700000 0  200000 700000 0  250000 700000 0  300000 700000 0  350000 700000 0  400000 700000 0  450000 700000 0  500000 700000 0  550000 700000 0  600000 700000 0  650000 700000 0  700000 700000 0  750000 700000 0  800000 700000 0  850000 700000 0  900000 700000 0  950000 700000 0  1000000 700000 0  0 750000 0  50000 750000 0  100000 750000 0  150000 750000 0  200000 750000 0  250000 750000 0  300000 750000 0  350000 750000 0  400000 750000 0  450000 750000 0  500000 750000 0  550000 750000 0  600000 750000 0  650000 750000 0  700000 750000 0  750000 750000 0  800000 750000 0  850000 750000 0  900000 750000 0  950000 750000 0  1000000 750000 0  0 800000 0  50000 800000 0  100000 800000 0  150000 800000 0  200000 800000 0  250000 800000 0  300000 800000 0  350000 800000 0  400000 800000 0  450000 800000 0  500000 800000 0  550000 800000 0  600000 800000 0  650000 800000 0  700000 800000 0  750000 800000 0  800000 800000 0  850000 800000 0  900000 800000 0  950000 800000 0  1000000 800000 0  0 850000 0  50000 850000 0  100000 850000 0  150000 850000 0  200000 850000 0  250000 850000 0  300000 850000 0  350000 850000 0  400000 850000 0  450000 850000 0  500000 850000 0  550000 850000 0  600000 850000 0  650000 850000 0  700000 850000 0  750000 850000 0  800000 850000 0  850000 850000 0  900000 850000 0  950000 850000 0  1000000 850000 0  0 900000 0  50000 900000 0  100000 900000 0  150000 900000 0  200000 900000 0  250000 900000 0  300000 900000 0  350000 900000 0  400000 900000 0  450000 900000 0  500000 900000 0  550000 900000 0  600000 900000 0  650000 900000 0  700000 900000 0  750000 900000 0  800000 900000 0  850000 900000 0  900000 900000 0  950000 900000 0  1000000 900000 0  0 950000 0  50000 950000 0  100000 950000 0  150000 950000 0  200000 950000 0  250000 950000 0  300000 950000 0  350000 950000 0  400000 950000 0  450000 950000 0  500000 950000 0  550000 950000 0  600000 950000 0  650000 950000 0  700000 950000 0  750000 950000 0  800000 950000 0  850000 950000 0  900000 950000 0  950000 950000 0  1000000 950000 0  0 1000000 0  50000 1000000 0  100000 1000000 0  150000 1000000 0  200000 1000000 0  250000 1000000 0  300000 1000000 0  350000 1000000 0  400000 1000000 0  450000 1000000 0  500000 1000000 0  550000 1000000 0  600000 1000000 0  650000 1000000 0  700000 1000000 0  750000 1000000 0  800000 1000000 0  850000 1000000 0  900000 1000000 0  950000 1000000 0  1000000 1000000 0  0 1050000 0  50000 1050000 0  100000 1050000 0  150000 1050000 0  200000 1050000 0  250000 1050000 0  300000 1050000 0  350000 1050000 0  400000 1050000 0  450000 1050000 0  500000 1050000 0  550000 1050000 0  600000 1050000 0  650000 1050000 0  700000 1050000 0  750000 1050000 0  800000 1050000 0  850000 1050000 0  900000 1050000 0  950000 1050000 0  1000000 1050000 0  0 1100000 0  50000 1100000 0  100000 1100000 0  150000 1100000 0  200000 1100000 0  250000 1100000 0  300000 1100000 0  350000 1100000 0  400000 1100000 0  450000 1100000 0  500000 1100000 0  550000 1100000 0  600000 1100000 0  650000 1100000 0  700000 1100000 0  750000 1100000 0  800000 1100000 0  850000 1100000 0  900000 1100000 0  950000 1100000 0  1000000 1100000 0  0 1150000 0  50000 1150000 0  100000 1150000 0  150000 1150000 0  200000 1150000 0  250000 1150000 0  300000 1150000 0  350000 1150000 0  400000 1150000 0  450000 1150000 0  500000 1150000 0  550000 1150000 0  600000 1150000 0  650000 1150000 0  700000 1150000 0  750000 1150000 0  800000 1150000 0  850000 1150000 0  900000 1150000 0  950000 1150000 0  1000000 1150000 0  0 1200000 0  50000 1200000 0  100000 1200000 0  150000 1200000 0  200000 1200000 0  250000 1200000 0  300000 1200000 0  350000 1200000 0  400000 1200000 0  450000 1200000 0  500000 1200000 0  550000 1200000 0  600000 1200000 0  650000 1200000 0  700000 1200000 0  750000 1200000 0  800000 1200000 0  850000 1200000 0  900000 1200000 0  950000 1200000 0  1000000 1200000 0  0 1250000 0  50000 1250000 0  100000 1250000 0  150000 1250000 0  200000 1250000 0  250000 1250000 0  300000 1250000 0  350000 1250000 0  400000 1250000 0  450000 1250000 0  500000 1250000 0  550000 1250000 0  600000 1250000 0  650000 1250000 0  700000 1250000 0  750000 1250000 0  800000 1250000 0  850000 1250000 0  900000 1250000 0  950000 1250000 0  1000000 1250000 0  0 1300000 0  50000 1300000 0  100000 1300000 0  150000 1300000 0  200000 1300000 0  250000 1300000 0  300000 1300000 0  350000 1300000 0  400000 1300000 0  450000 1300000 0  500000 1300000 0  550000 1300000 0  600000 1300000 0  650000 1300000 0  700000 1300000 0  750000 1300000 0  800000 1300000 0  850000 1300000 0  900000 1300000 0  950000 1300000 0  1000000 1300000 0  0 1350000 0  50000 1350000 0  100000 1350000 0  150000 1350000 0  200000 1350000 0  250000 1350000 0  300000 1350000 0  350000 1350000 0  400000 1350000 0  450000 1350000 0  500000 1350000 0  550000 1350000 0  600000 1350000 0  650000 1350000 0  700000 135
[...]
<PointData  Scalars="f_1511"> 
<DataArray  type="Float64"  Name="f_1511"  format="ascii">-8.0289660260955724e+00  -8.0285612913589315e+00  -8.0265664087002815e+00  -8.0229751578091069e+00  -8.0178804308985505e+00  -8.0114176314714740e+00  -8.0037583810757678e+00  -7.9951056141827923e+00  -7.9856881218546647e+00  -7.9757544397989930e+00  -7.9655662336805726e+00  -7.9553913607646711e+00  -7.9454967886722461e+00  -7.9361415540893869e+00  -7.9275699511733517e+00  -7.9200051652813075e+00  -7.9136436660024865e+00  -7.9086509815053603e+00  -7.9051598432479864e+00  -7.9032636633423294e+00  -7.9028543835728122e+00  -8.0293534985647117e+00  -8.0289576259427751e+00  -8.0269340456175762e+00  -8.0233188530999833e+00  -8.0181974721046689e+00  -8.0117027844872908e+00  -8.0040058018821920e+00  -7.9953097807694054e+00  -7.9858443093878897e+00  -7.9758589869842629e+00  -7.9656167010624586e+00  -7.9553866187294213e+00  -7.9454370484227503e+00  -7.9360283424819000e+00  -7.9274060168514069e+00  -7.9197942655279387e+00  -7.9133900239466177e+00  -7.9083575483116517e+00  -7.9048224559072660e+00  -7.9028595024297248e+00  -7.9024501786027876e+00  -8.0312301171714893e+00  -8.0308615493081632e+00  -8.0287912272357147e+00  -8.0250667861676437e+00  -8.0197905339191227e+00  -8.0131021276036876e+00  -8.0051777329423057e+00  -7.9962260745301581e+00  -7.9864829382486215e+00  -7.9762047787818018e+00  -7.9656617963051080e+00  -7.9551307051483739e+00  -7.9448873738430903e+00  -7.9351995104313335e+00  -7.9263195718833304e+00  -7.9184780879863794e+00  -7.9118776082351729e+00  -7.9066874824199731e+00  -7.9030394786168010e+00  -7.9010223115295908e+00  -7.9006552882990659e+00  -8.0345724325479377e+00  -8.0342077329774373e+00  -8.0320594802414362e+00  -8.0281577599122080e+00  -8.0226153283960375e+00  -8.0155847027658353e+00  -8.0072537640558892e+00  -7.9978429450803414e+00  -7.9876003468728936e+00  -7.9767954557204019e+00  -7.9657120674495294e+00  -7.9546407883191197e+00  -7.9438713670909458e+00  -7.9336850714636684e+00  -7.9243473208092476e+00  -7.9161008157824577e+00  -7.9091594632866560e+00  -7.9037034263634069e+00  -7.8998751339493616e+00  -7.8977719149976631e+00  -7.8974044190127257e+00  -8.0393285019863487e+00  -8.0389531296611789e+00  -8.0366822769005477e+00  -8.0325307999273985e+00  -8.0266158842115765e+00  -8.0191031751323401e+00  -8.0101964077473866e+00  -8.0001331314644322e+00  -7.9891796269303201e+00  -7.9776244929321853e+00  -7.9657713206706564e+00  -7.9539308525687051e+00  -7.9424129264317003e+00  -7.9315184558318226e+00  -7.9215316902763941e+00  -7.9127130224392426e+00  -7.9052926356593174e+00  -7.8994651580458166e+00  -7.8953844316243540e+00  -7.8931518760738806e+00  -7.8927636445166396e+00  -8.0454687374662655e+00  -8.0450717793185618e+00  -8.0426318943117412e+00  -8.0381538054024464e+00  -8.0317591734041667e+00  -8.0236271912251329e+00  -8.0139802128690665e+00  -8.0030773237032573e+00  -7.9912082832588505e+00  -7.9786865505780984e+00  -7.9658414815551559e+00  -7.9530100035485649e+00  -7.9405280573921280e+00  -7.9287220654413355e+00  -7.9179006751911496e+00  -7.9083470338606228e+00  -7.9003118188840924e+00  -7.8940069738135428e+00  -7.8895987278657955e+00  -7.8871923793356844e+00  -7.8867723655094197e+00  -8.0529842812884951e+00  -8.0525564419353355e+00  -8.0499014986625479e+00  -8.0450179325866742e+00  -8.0380342921765120e+00  -8.0291452660002953e+00  -8.0185946863973037e+00  -8.0066672016174909e+00  -7.9936809425635387e+00  -7.9799796518386614e+00  -7.9659241586285470e+00  -7.9518833963712341e+00  -7.9382252048615598e+00  -7.9253071506557724e+00  -7.9134675935367564e+00  -7.9030172196078503e+00  -7.8942311950675483e+00  -7.8873417482542010e+00  -7.8825295003003593e+00  -7.8799055078957467e+00  -7.8794453883209510e+00  -8.0618827538384608e+00  -8.0614154171367556e+00  -8.0584997733131321e+00  -8.0531305969919345e+00  -8.0454464452833818e+00  -8.0356605078723309e+00  -8.0240415084634282e+00  -8.0109037722642658e+00  -7.9965985630401839e+00  -7.9815051275748230e+00  -7.9660212589805681e+00  -7.9505535030778169e+00  -7.9355071915271047e+00  -7.9212764886060896e+00  -7.9082346372503558e+00  -7.8967245826266765e+00  -7.8870500796761842e+00  -7.8794670310153245e+00  -7.8741732560445330e+00  -7.8712881431513297e+00  -7.8707803982204014e+00  -8.0721835310429615e+00  -8.0716682988897492e+00  -8.0684461583549965e+00  -8.0625098538638600e+00  -8.0540112334368317e+00  -8.0431856141259388e+00  -8.0303305735547941e+00  -8.0157945137722173e+00  -7.9999666507507019e+00  -7.9832668689899791e+00  -7.9661352509851788e+00  -7.9490213665837839e+00  -7.9323734478608641e+00  -7.9166275734857861e+00  -7.9021969897662396e+00  -7.8894617006913936e+00  -7.8787584064090694e+00  -7.8703705227731984e+00  -7.8645163984736701e+00  -7.8613265196772435e+00  -7.8607638531340118e+00  -8.0839126822525902e+00  -8.0833411175636414e+00  -8.0797659861563567e+00  -8.0731792544126346e+00  -8.0637494248111814e+00  -8.0517379986639011e+00  -8.0374758482107005e+00  -8.0213501884869149e+00  -8.0037931462861049e+00  -7.9852703437613597e+00  -7.9662693261310267e+00  -7.9472878915145833e+00  -7.9288223825346762e+00  -7.9113559801501951e+00  -7.8953470472503975e+00  -7.8812175978165948e+00  -7.8693419511685176e+00  -7.8600353094507760e+00  -7.8535402834588410e+00  -7.8500013330394207e+00  -7.8493764548912957e+00  -8.0970973785866338e+00  -8.0964608412243866e+00  -8.0924850964496926e+00  -8.0851624637475812e+00  -8.0746816503891257e+00  -8.0613348173279551e+00  -8.0454910341044048e+00  -8.0275814101683594e+00  -8.0080860899998569e+00  -7.9875214799353778e+00  -7.9664275533329025e+00  -7.9453552548581889e+00  -7.9248539719004079e+00  -7.9054589942933617e+00  -7.8876788945486709e+00  -7.8719828227071371e+00  -7.8587877470609229e+00  -7.8484453887450831e+00  -7.8412267720422086e+00  -7.8372934022075604e+00  -7.8365989275698933e+00  -8.1117595170957308e+00  -8.1110490475527115e+00  -8.1066236257028752e+00  -8.0984771662692925e+00  -8.0868225061493693e+00  -8.0719874709525836e+00  -8.0543847511434752e+00  -8.0344947928752113e+00  -8.0128509779738355e+00  -7.9900253968133201e+00  -7.9666150646383063e+00  -7.9432285334541586e+00  -7.9204727261842054e+00  -7.8989397350096722e+00  -7.8791933418087261e+00  -7.8617551267848915e+00  -7.8470901435286784e+00  -7.8355919162189522e+00  -7.8275645780117253e+00  -7.8231901171208786e+00  -7.8224185139593452e+00  -8.1279082710979562e+00  -8.1271144996892311e+00  -8.1221886704180033e+00  -8.1131278678564911e+00  -8.1001736153255948e+00  -8.0836951538039621e+00  -8.0641548773449419e+00  -8.0420884108909156e+00  -8.0180876361729734e+00  -7.9927849079803766e+00  -7.9668382935739661e+00  -7.9409176633412928e+00  -7.9156912375429416e+00  -7.8918120589568339e+00  -7.8699038838909630e+00  -7.8505461545775646e+00  -7.8342579329304325e+00  -7.8214805521006312e+00  -7.8125567215217604e+00  -7.8076929599438927e+00  -7.8068365196890861e+00  -8.1455312412760588e+00  -8.1446443072150370e+00  -8.1391654852475224e+00  -8.1290972001256208e+00  -8.1147152080216500e+00  -8.0964369981133117e+00  -8.0747816384885667e+00  -8.0503462432130544e+00  -8.0237863906662721e+00  -7.9957986911812950e+00  -7.9671052820779806e+00  -7.9384398661228612e+00  -7.9105345558444791e+00  -7.8841065865691755e+00  -7.8598439923049694e+00  -7.8383895903950229e+00  -7.8203229813561368e+00  -7.8061403034519632e+00  -7.7962294339342293e+00  -7.7908264255928508e+00  -7.7898772386377466e+00  -8.1645838415217487e+00  -8.1635933050985034e+00  -8.1575068205889298e+00  -8.1463352800184925e+00  -8.1303957263882598e+00  -8.1101623135903083e+00  -8.0862189853340372e+00  -8.0592312237853001e+00  -8.0299232708554644e+00  -7.9990589969040702e+00  -7.9674260708297551e+00  -7.9358226988113456e+00  -7.9050456796344690e+00  -7.8758782472751072e+00  -7.8490762126289457e+00  -7.8253512668867904e+00  -7.8053508566982970e+00  -7.7896343093763196e+00  -7.7786429104821222e+00  -7.7726487094947201e+00  -7.7715986255711851e+00  -8.1849765051295584e+00  -8.1838712291490676e+00  -8.1771199323654926e+00  -8.1647465922956961e+00  -8.1471188731872193e+00  -8.1247783347092426e+00  -8.0983837219518975e+00  -8.0686764612847011e+00  -8.0364539442348484e+00  -8.0025487481429636e+00  -7.9678131873641389e+00  -7.9331079032663023e+00  -7.8992924913277509e+00  -7.8672158046280778e+00  -7.8377036233593724e+00  -7.8115418352297405e+00  -7.7894540418464562e+00  -7.7720731027193617e+00  -7.7599043775535765e+00  -7.7532645843087540e+00  -7.7521051299295456e+00  -8.2065592354237999e+00  -8.2053271978916520e+00  -8.1978507006706778e+00  -8.1841737405658854e+00  -8.1647273921032859e+00  -8.1401347736942515e+00  -8.1111417631617169e+00  -8.0785741387982402e+00  -8.0433060531045921e+00  -8.0062378714623321e+00  -7.9682822440160574e+00  -7.9303562409566277e+00  -7.8933764959890356e+00  -7.8582538835978086e+00  -7.8258843090170904e+00  -7.7971327222837337e+00  -7.7728084569797797e+00  -7.7536310059432036e+00  -7.7401840387284402e+00  -7.7328409596924512e+00  -7.7315631710137795e+00  -8.2291029391659372e+00  -8.2277309141080703e+00  -8.2194641556902983e+00  -8.2043772385252023e+00  -8.1829826944150739e+00  -8.1560043429304194e+00  -8.1242908242495542e+00  -8.0887615817266845e+00  -8.0503696298206346e+00  -8.0100787065260199e+00  -7.9688526500767729e+00  -7.9276534800795737e+00  -7.8874437148313454e+00  -7.8491880536976755e+00  -7.8138495929285599e+00  -7.7823762534493675e+00  -7.7556742026128660e+00  -7.7345664998087909e+00  -7.7197346068645532e+00  -7.7116257247515030e+00  -7.7102198321591704e+00  -8.2522768484629623e+00  -8.2507498477670964e+00  -8.2416204930760664e+00  -8.2250102549472377e+00  -8.2015392185195601e+00  -8.1720582783359585e+00  -8.1375388294220183e+00  -8.0990040491009747e+00  -8.0574853563030970e+00  -8.0140003929919121e+00  -7.9695484240968382e+00  -7.9251176202418030e+00  -7.8816979835058376e+00  -7.8402934660615982e+00  -7.8019268222122502e+00  -7.7676309893517903e+00  -7.7384216929872522e+00  -7.7152476778408037e+00  -7.6989153557550090e+00  -7.6899706409890474e+00  -7.6884255069917424e+00  -8.2756211120181931e+00  -8.2739214017896785e+00  -8.2638452961994027e+00  -8.2455868246741364e+00  -8.2199121156069825e+00  -8.1878358160999927e+00  -8.1504774632347949e+00  -8.1089740680302143e+00  -8.0644306941206381e+00  -8.0179022752097797e+00  -7.9703990541883014e+00  -7.9229072338189450e+00  -7.8764166123203667e+00  -7.8319472897583919e+00  -7.7905674120912103e+00  -7.7533934758883163e+00  -7.7215647052943384e+00  -7.6961843356633821e+00  -7.6782220070790368e+00  -7.6683593424687304e+00  -7.6666614985993204e+00  -8.2985132301189832e+00  -8.2966185837529967e+00  -8.2854920289058178e+00  -8.2654413893396228e+00  -8.2374364990558782e+00  -8.2027066682338816e+00  -8.1625507707442839e+00  -8.1182277880106515e+00  -8.0709044922772666e+00  -8.0216466699023474e+00  -7.9714402829684774e+00  -7.9212303735588456e+00  -7.8719677114651008e+00  -7.8246545400606138e+00  -7.7803804615896084e+00  -7.7403376521128493e+00  -7.7058023567886291e+00  -7.6780689674921012e+00  -7.6583244506050550e+00  -7.6474420245765717e+00  -7.6455740590688306e+00  -8.3201262443139203e+00  -8.3180067834342708e+00  -8.3056936358387059e+00  -8.2836764623493373e+00  -8.2532161386520198e+00  -8.2158260784958230e+00  -8.1730198960486646e+00  -8.1261802086698935e+00  -8.0765118090174433e+00  -8.0250519168407219e+00  -7.9727145717360353e+00  -7.9203526983375250e+00  -7.8688272017859813e+00  -7.8190754848697477e+00  -7.7721711967321143e+00  -7.7293628799835430e+00  -7.6920726523488234e+00  -7.6618301779659443e+00  -7.6401155678007830e+00  -7.6280793948943115e+00  -7.6260172754388842e+00  -8.3393751247297221e+00  -8.3369873958937095e+00  -8.3232977079635830e+00  -8.2990934707903303e+00  -8.2660593854513547e+00  -8.2260836224796012e+00  -8.1809275867849376e+00  -8.1320837348228157e+00  -8.0807526640589540e+00  -8.0278876063098306e+00  -7.9742708095746391e+00  -7.9206021295203843e+00  -7.8675912465055493e+00  -7.8160500721159769e+00  -7.7669810990161814e+00  -7.7216504258706440e+00  -7.6816209189967886e+00  -7.6487041571663870e+00  -7.6247768917887315e+00  -7.6114004027002036e+00  -7.6091089983771809e+00  -8.3548449245154917e+00  -8.3521200884277746e+00  -8.3367749471105963e+00  -8.3100991921356329e+00  -8.2744011445214039e+00  -8.2320508499338931e+00  -8.1850710926797099e+00  -8.1350189991541253e+00  -8.0830215580314331e+00  -8.0298753422121241e+00  -7.9761625820256477e+00  -7.9223653517355466e+00  -7.8689761470916952e+00  -7.8166098741660779e+00  -7.7661215480788881e+00  -7.7187249725243392e+00  -7.6760866335212725e+00  -7.6403335255080584e+00  -7.6138717817564867e+00  -7.5988822257718027e+00  -7.5963076287677467e+00  -8.3646885435602591e+00  -8.3615065864875309e+00  -8.3440812213046058e+00  -8.3145771288035881e+00  -8.2762144201511543e+00  -8.2319418448405806e+00  -8.1840012147445123e+00  -8.1339138462796452e+00  -8.0826288418988561e+00  -8.0307002491904704e+00  -7.9784440644696604e+00  -7.9260689874033909e+00  -7.8737925336619154e+00  -7.8219598817093390e+00  -7.7711828473719393e+00  -7.7225093609304443e+00  -7.6776098802934039e+00  -7.6389087372930282e+00  -7.6094871094228562e+00  -7.5924695429120419e+00  -7.5895252748814759e+00  -8.3664702138983653e+00  -8.3625969354331833e+00  -8.3424352433064062e+00  -8.3097134053626114e+00  -8.2689302046987549e+00  -8.2236198158879255e+00  -8.1760803361648087e+00  -8.1276154536222247e+00  -8.0788593827684050e+00  -8.0300400151294404e+00  -7.9811625178180510e+00  -7.9321362258332222e+00  -7.8828749773070852e+00  -7.8334007972942477e+00  -7.7839821453575624e+00  -7.7353402785200807e+00  -7.6889471427328280e+00  -7.6473747294618075e+00  -7.6144668324020515e+00  -7.5947701747997174e+00  -7.5913104434314356e+00  -8.3569045759082190e+00  -8.3518208718147147e+00  -8.3279436772683120e+00  -8.2917865780683133e+00  -8.2494267807789985e+00  -8.2047193065623496e+00  -8.1596530269332952e+00  -8.1150484036619677e+00  -8.0710851737758862e+00  -8.0276177980315655e+00  -7.9843466098259768e+00  -7.9409102760172292e+00  -7.8969457099525782e+00  -7.8521504357354406e+00  -7.8063844932989790e+00  -7.7598659841353230e+00  -7.7135431628781737e+00  -7.6697235398654069e+00  -7.6328305515340364e+00  -7.6094169768185482e+00  -7.6051787242181490e+00  -8.3313599300831918e+00  -8.3237866046881965e+00  -8.2949856612011459e+00  -8.2560259772825955e+00  -8.2142511437903902e+00  -8.1730111281301738e+00  -8.1333998015729847e+00  -8.0954875312972892e+00  -8.0589392371590893e+00  -8.0232791130102274e+00  -7.9879898987646536e+00  -7.9525423382047187e+00  -7.9163997023610371e+00  -7.8790224793168457e+00  -7.8398996757123687e+00  -7.7986581494345764e+00  -7.7553692163905978e+00  -7.7113141200030544e+00  -7.6705673884314871e+00  -7.6418480997364870e+00  -7.6363053759344250e+00  -8.2826164110842111e+00  -8.2693967422134929e+00  -8.2354333837615243e+00  -8.1969663510924473e+00  -8.1604291098294599e+00  -8.1271870089599805e+00  -8.0969222048050540e+00  -8.0689343607807249e+00  -8.0425250029397777e+00  -8.0170736711335469e+00  -7.9920249464695310e+00  -7.9668536218779948e+00  -7.9410252504300640e+00  -7.9139548295744984e+00  -7.8849657524680570e+00  -7.8532650935279333e+00  -7.8180073851096550e+00  -7.7787171124859205e+00  -7.7369863785548185e+00  -7.7013590709404074e+00  -7.6932600316913513e+00  -8.1961099665947312e+00  -8.1716260979610436e+00  -8.1389139307361074e+00  -8.1105339782559831e+00  -8.0874068856088659e+00  -8.0681367985525068e+00  -8.0514515260992940e+00  -8.0364612712394354e+00  -8.0225511802397413e+00  -8.0092699872720008e+00  -7.9962542039372142e+00  -7.9831763481842142e+00  -7.9697034146920203e+00  -7.9554538690754137e+00  -7.9399402692328929e+00  -7.9224784007890277e+00  -7.9020344334257908e+00  -7.8770053291481483e+00  -7.8452542352934458e+00  -7.8072976024769067e+00  -7.7937470546993923e+00  -8.0000000000000000e+00  -8.0000000000000000e+00  -8.0000000000000000e+00  -8.0000000000000000e+00  -8.0000000000000000e+00  -8.0000000000000000e+00  -8.0000000000000000e+00  -8.0000000000000000e+00  -8.0000000000000000e+00  -8.0000000000000000e+00  -8.0000000000000000e+00  -8.0000000000000000e+00  -8.0000000000000000e+00  -8.0000000000000000e+00  -8.0000000000000000e+00  -8.0000000000000000e+00  -8.0000000000000000e+00  -8.0000000000000000e+00  -8.0000000000000000e+00  -8.0000000000000000e+00  -8.0000000000000000e+00  </DataArray> 
</PointData> 
</Piece>
</UnstructuredGrid>
</VTKFile>