<?xml version="1.0"?>
<VTKFile type="UnstructuredGrid"  version="0.1"  >
<UnstructuredGrid>
<Piece  NumberOfPoints="651" NumberOfCells="1200">
<Points>
<DataArray  type="Float64"  NumberOfComponents="3"  format="ascii">0 0 0  50000 0 0  100000 0 0  150000 0 0  200000 0 0  250000 0 0  300000 0 0  350000 0 0  400000 0 0  450000 0 0  500000 0 0  550000 0 0  600000 0 0  650000 0 0  700000 0 0  750000 0 0  800000 0 0  850000 0 0  900000 0 0  950000 0 0  1000000 0 0  0 50000 0  50000 50000 0  100000 50000 0  150000 50000 0  200000 50000 0  250000 50000 0  300000 50000 0  350000 50000 0  400000 50000 0  450000 50000 0  500000 50000 0  550000 50000 0  600000 50000 0  650000 50000 0  700000 50000 0  750000 50000 0  800000 50000 0  850000 50000 0  900000 50000 0  950000 50000 0  1000000 50000 0  0 100000 0  50000 100000 0  100000 100000 0  150000 100000 0  200000 100000 0  250000 100000 0  300000 100000 0  350000 100000 0  400000 100000 0  450000 100000 0  500000 100000 0  550000 100000 0  600000 100000 0  650000 100000 0  700000 100000 0  750000 100000 0  800000 100000 0  850000 100000 0  900000 100000 0  950000 100000 0  1000000 100000 0  0 150000 0  50000 150000 0  100000 150000 0  150000 150000 0  200000 150000 0  250000 150000 0  300000 150000 0  350000 150000 0  400000 150000 0  450000 150000 0  500000 150000 0  550000 150000 0  600000 150000 0  650000 150000 0  700000 150000 0  750000 150000 0  800000 150000 0  850000 150000 0  900000 150000 0  950000 150000 0  1000000 150000 0  0 200000 0  50000 200000 0  100000 200000 0  150000 200000 0  200000 200000 0  250000 200000 0  300000 200000 0  350000 200000 0  400000 200000 0  450000 200000 0  500000 200000 0  550000 200000 0  600000 200000 0  650000 200000 0  700000 200000 0  750000 200000 0  800000 200000 0  850000 200000 0  900000 200000 0  950000 200000 0  1000000 200000 0  0 250000 0  50000 250000 0  100000 250000 0  150000 250000 0  200000 250000 0  250000 250000 0  300000 250000 0  350000 250000 0  400000 250000 0  450000 250000 0  500000 250000 0  550000 250000 0  600000 250000 0  650000 250000 0  700000 250000 0  750000 250000 0  800000 250000 0  850000 250000 0  900000 250000 0  950000 250000 0  1000000 250000 0  0 300000 0  50000 300000 0  100000 300000 0  150000 300000 0  200000 300000 0  250000 300000 0  300000 300000 0  350000 300000 0  400000 300000 0  450000 300000 0  500000 300000 0  550000 300000 0  600000 300000 0  650000 300000 0  700000 300000 0  750000 300000 0  800000 300000 0  850000 300000 0  900000 300000 0  950000 300000 0  1000000 300000 0  0 350000 0  50000 350000 0  100000 350000 0  150000 350000 0  200000 350000 0  250000 350000 0  300000 350000 0  350000 350000 0  400000 350000 0  450000 350000 0  500000 350000 0  550000 350000 0  600000 350000 0  650000 350000 0  700000 350000 0  750000 350000 0  800000 350000 0  850000 350000 0  900000 350000 0  950000 350000 0  1000000 350000 0  0 400000 0  50000 400000 0  100000 400000 0  150000 400000 0  200000 400000 0  250000 400000 0  300000 400000 0  350000 400000 0  400000 400000 0  450000 400000 0  500000 400000 0  550000 400000 0  600000 400000 0  650000 400000 0  700000 400000 0  750000 400000 0  800000 400000 0  850000 400000 0  900000 400000 0  950000 400000 0  1000000 400000 0  0 450000 0  50000 450000 0  100000 450000 0  150000 450000 0  200000 450000 0  250000 450000 0  300000 450000 0  350000 450000 0  400000 450000 0  450000 450000 0  500000 450000 0  550000 450000 0  600000 450000 0  650000 450000 0  700000 450000 0  750000 450000 0  800000 450000 0  850000 450000 0  900000 450000 0  950000 450000 0  1000000 450000 0  0 500000 0  50000 500000 0  100000 500000 0  150000 500000 0  200000 500000 0  250000 500000 0  300000 500000 0  350000 500000 0  400000 500000 0  450000 500000 0  500000 500000 0  550000 500000 0  600000 500000 0  650000 500000 0  700000 500000 0  750000 500000 0  800000 500000 0  850000 500000 0  900000 500000 0  950000 500000 0  1000000 500000 0  0 550000 0  50000 550000 0  100000 550000 0  150000 550000 0  200000 550000 0  250000 550000 0  300000 550000 0  350000 550000 0  400000 550000 0  450000 550000 0  500000 550000 0  550000 550000 0  600000 550000 0  650000 550000 0  700000 550000 0  750000 550000 0  800000 550000 0  850000 550000 0  900000 550000 0  950000 550000 0  1000000 550000 0  0 600000 0  50000 600000 0  100000 600000 0  150000 600000 0  200000 600000 0  250000 600000 0  300000 600000 0  350000 600000 0  400000 600000 0  450000 600000 0  500000 600000 0  550000 600000 0  600000 600000 0  650000 600000 0  700000 600000 0  750000 600000 0  800000 600000 0  850000 600000 0  900000 600000 0  950000 600000 0  1000000 600000 0  0 650000 0  50000 650000 0  100000 650000 0  150000 650000 0  200000 650000 0  250000 650000 0  300000 650000 0  350000 650000 0  400000 650000 0  450000 650000 0  500000 650000 0  550000 650000 0  600000 650000 0  650000 650000 0  700000 650000 0  750000 650000 0  800000 650000 0  850000 650000 0  900000 650000 0  950000 650000 0  1000000 650000 0  0 700000 0  50000 700000 0  100000 700000 0  150000 700000 0  200000 700000 0  250000 700000 0  300000 700000 0  350000 700000 0  400000 700000 0  450000 700000 0  500000 700000 0  550000 700000 0  600000 700000 0  650000 700000 0  700000 700000 0  750000 700000 0  800000 700000 0  850000 700000 0  900000 700000 0  950000 700000 0  1000000 700000 0  0 750000 0  50000 750000 0  100000 750000 0  150000 750000 0  200000 750000 0  250000 750000 0  300000 750000 0  350000 750000 0  400000 750000 0  450000 750000 0  500000 750000 0  550000 750000 0  600000 750000 0  650000 750000 0  700000 750000 0  750000 750000 0  800000 750000 0  850000 750000 0  900000 750000 0  950000 750000 0  1000000 750000 0  0 800000 0  50000 800000 0  100000 800000 0  150000 800000 0  200000 800000 0  250000 800000 0  300000 800000 0  350000 800000 0  400000 800000 0  450000 800000 0  500000 800000 0  550000 800000 0  600000 800000 0  650000 800000 0  700000 800000 0  750000 800000 0  800000 800000 0  850000 800000 0  900000 800000 0  950000 800000 0  1000000 800000 0  0 850000 0  50000 850000 0  100000 850000 0  150000 850000 0  200000 850000 0  250000 850000 0  300000 850000 0  350000 850000 0  400000 850000 0  450000 850000 0  500000 850000 0  550000 850000 0  600000 850000 0  650000 850000 0  700000 850000 0  750000 850000 0  800000 850000 0  850000 850000 0  900000 850000 0  950000 850000 0  1000000 850000 0  0 900000 0  50000 900000 0  100000 900000 0  150000 900000 0  200000 900000 0  250000 900000 0  300000 900000 0  350000 900000 0  400000 900000 0  450000 900000 0  500000 900000 0  550000 900000 0  600000 900000 0  650000 900000 0  700000 900000 0  750000 900000 0  800000 900000 0  850000 900000 0  900000 900000 0  950000 900000 0  1000000 900000 0  0 950000 0  50000 950000 0  100000 950000 0  150000 950000 0  200000 950000 0  250000 950000 0  300000 950000 0  350000 950000 0  400000 950000 0  450000 950000 0  500000 950000 0  550000 950000 0  600000 950000 0  650000 950000 0  700000 950000 0  750000 950000 0  800000 950000 0  850000 950000 0  900000 950000 0  950000 950000 0  1000000 950000 0  0 1000000 0  50000 1000000 0  100000 1000000 0  150000 1000000 0  200000 1000000 0  250000 1000000 0  300000 1000000 0  350000 1000000 0  400000 1000000 0  450000 1000000 0  500000 1000000 0  550000 1000000 0  600000 1000000 0  650000 1000000 0  700000 1000000 0  750000 1000000 0  800000 1000000 0  850000 1000000 0  900000 1000000 0  950000 1000000 0  1000000 1000000 0  0 1050000 0  50000 1050000 0  100000 1050000 0  150000 1050000 0  200000 1050000 0  250000 1050000 0  300000 1050000 0  350000 1050000 0  400000 1050000 0  450000 1050000 0  500000 1050000 0  550000 1050000 0  600000 1050000 0  650000 1050000 0  700000 1050000 0  750000 1050000 0  800000 1050000 0  850000 1050000 0  900000 1050000 0  950000 1050000 0  1000000 1050000 0  0 1100000 0  50000 1100000 0  100000 1100000 0  150000 1100000 0  200000 1100000 0  250000 1100000 0  300000 1100000 0  350000 1100000 0  400000 1100000 0  450000 1100000 0  500000 1100000 0  550000 1100000 0  600000 1100000 0  650000 1100000 0  700000 1100000 0  750000 1100000 0  800000 1100000 0  850000 1100000 0  900000 1100000 0  950000 1100000 0  1000000 1100000 0  0 1150000 0  50000 1150000 0  100000 1150000 0  150000 1150000 0  200000 1150000 0  250000 1150000 0  300000 1150000 0  350000 1150000 0  400000 1150000 0  450000 1150000 0  500000 1150000 0  550000 1150000 0  600000 1150000 0  650000 1150000 0  700000 1150000 0  750000 1150000 0  800000 1150000 0  850000 1150000 0  900000 1150000 0  950000 1150000 0  1000000 1150000 0  0 1200000 0  50000 1200000 0  100000 1200000 0  150000 1200000 0  200000 1200000 0  250000 1200000 0  300000 1200000 0  350000 1200000 0  400000 1200000 0  450000 1200000 0  500000 1200000 0  550000 1200000 0  600000 1200000 0  650000 1200000 0  700000 1200000 0  750000 1200000 0  800000 1200000 0  850000 1200000 0  900000 1200000 0  950000 1200000 0  1000000 1200000 0  0 1250000 0  50000 1250000 0  100000 1250000 0  150000 1250000 0  200000 1250000 0  250000 1250000 0  300000 1250000 0  350000 1250000 0  400000 1250000 0  450000 1250000 0  500000 1250000 0  550000 1250000 0  600000 1250000 0  650000 1250000 0  700000 1250000 0  750000 1250000 0  800000 1250000 0  850000 1250000 0  900000 1250000 0  950000 1250000 0  1000000 1250000 0  0 1300000 0  50000 1300000 0  100000 1300000 0  150000 1300000 0  200000 1300000 0  250000 1300000 0  300000 1300000 0  350000 1300000 0  400000 1300000 0  450000 1300000 0  500000 1300000 0  550000 1300000 0  600000 1300000 0  650000 1300000 0  700000 1300000 0  750000 1300000 0  800000 1300000 0  850000 1300000 0  900000 1300000 0  950000 1300000 0  1000000 1300000 0  0 1350000 0  50000 1350000 0  100000 1350000 0  150000 1350000 0  200000 1350000 0  250000 1350000 0  300000 1350000 0  350000 1350000 0  400000 1350000 0  450000 1350000 0  500000 1350000 0  550000 1350000 0  600000 1350000 0  650000 1350000 0  700000 135
[...]
<PointData  Scalars="f_1511"> 
<DataArray  type="Float64"  Name="f_1511"  format="ascii">-8.0536999563121032e+00  -8.0529520607295613e+00  -8.0492435734936851e+00  -8.0425635220907594e+00  -8.0330860371531703e+00  -8.0210639571955085e+00  -8.0068171185873727e+00  -7.9907232734574718e+00  -7.9732079924220622e+00  -7.9547333553376731e+00  -7.9357857144442328e+00  -7.9168628614687808e+00  -7.8984609323316768e+00  -7.8810613864765626e+00  -7.8651184108227072e+00  -7.8510471475534089e+00  -7.8392133316331751e+00  -7.8299255091016864e+00  -7.8234317154510622e+00  -7.8199074122731966e+00  -7.8191496422280107e+00  -8.0544121273997984e+00  -8.0536810304218154e+00  -8.0499189786972725e+00  -8.0431946890219326e+00  -8.0336681934015282e+00  -8.0215875534035366e+00  -8.0072714204043542e+00  -7.9910981111267656e+00  -7.9734946502494655e+00  -7.9549250683301551e+00  -7.9358779624917446e+00  -7.9168535325853799e+00  -7.8983503801636203e+00  -7.8808523839129379e+00  -7.8648159762902772e+00  -7.8506581492717542e+00  -7.8387454742970473e+00  -7.8293840705449878e+00  -7.8228085338662030e+00  -7.8191590480020778e+00  -7.8184014403509687e+00  -8.0578974369580525e+00  -8.0572184270934617e+00  -8.0533701678966079e+00  -8.0464428442528106e+00  -8.0366283317577754e+00  -8.0241874125301855e+00  -8.0094483578135502e+00  -7.9927996608748808e+00  -7.9746798719800154e+00  -7.9555657680377703e+00  -7.9359595413850013e+00  -7.9163754223776435e+00  -7.8973260668792422e+00  -7.8793090287248519e+00  -7.8627936466980586e+00  -7.8482086978976691e+00  -7.8359312046546634e+00  -7.8262767870780801e+00  -7.8194915611063855e+00  -7.8157419190160358e+00  -7.8150647320470021e+00  -8.0641108885513564e+00  -8.0634401788956520e+00  -8.0594482572884392e+00  -8.0521918182795780e+00  -8.0418823113584601e+00  -8.0288046659102701e+00  -8.0133090805849019e+00  -7.9958059036481499e+00  -7.9767566370216683e+00  -7.9566623246239550e+00  -7.9360504657066562e+00  -7.9154611442361347e+00  -7.8954328473256981e+00  -7.8764883669512722e+00  -7.8591211767552211e+00  -7.8437827300348335e+00  -7.8308712343852962e+00  -7.8207225152263309e+00  -7.8136026367926927e+00  -7.8096940423380738e+00  -7.8090169119443047e+00  -8.0729534802856779e+00  -8.0722640103095866e+00  -8.0680454100083079e+00  -8.0603253443189491e+00  -8.0493233777082853e+00  -8.0353489894548531e+00  -8.0187820185749921e+00  -8.0000647638468667e+00  -7.9796926185879942e+00  -7.9582022277921336e+00  -7.9361579460198568e+00  -7.9141373381937949e+00  -7.8927162830914002e+00  -7.8724541446120808e+00  -7.8538794618738681e+00  -7.8374766537279248e+00  -7.8236742811673432e+00  -7.8128351673042458e+00  -7.8052466630830546e+00  -7.8010986842642698e+00  -7.8003837592571195e+00  -8.0843679774380561e+00  -8.0836395226248925e+00  -8.0791078927517237e+00  -8.0707814194881724e+00  -8.0588878358988758e+00  -8.0437618654349308e+00  -8.0258180909267622e+00  -8.0055389752415049e+00  -7.9834636636189344e+00  -7.9601750969433924e+00  -7.9362855893430089e+00  -7.9124214363710257e+00  -7.8892070923927822e+00  -7.8672493963578125e+00  -7.8471223076914267e+00  -7.8293526244220617e+00  -7.8144070962221930e+00  -7.8026808193083301e+00  -7.7944841954190505e+00  -7.7900141911538547e+00  -7.7892410061835342e+00  -8.0983358930354150e+00  -8.0975512907571314e+00  -8.0926210933435723e+00  -8.0835417031389500e+00  -8.0705535585944173e+00  -8.0540202244745309e+00  -8.0343963074849345e+00  -8.0122118972717100e+00  -7.9880589722751383e+00  -7.9625768408481266e+00  -7.9364363787976897e+00  -7.9103234228309054e+00  -7.8849217658908453e+00  -7.8608961862159887e+00  -7.8388759302103841e+00  -7.8194390546216175e+00  -7.8030979053826952e+00  -7.7902853498476805e+00  -7.7813385549922511e+00  -7.7764650722448110e+00  -7.7756182993083280e+00  -8.1148695224994789e+00  -8.1140129061146986e+00  -8.1085994021146757e+00  -8.0986183068185031e+00  -8.0843286367461484e+00  -8.0661283959300540e+00  -8.0445185402907686e+00  -8.0200844072674080e+00  -7.9934796334198417e+00  -7.9654095739958750e+00  -7.9366138479995820e+00  -7.9078482295380343e+00  -7.8798662212833497e+00  -7.8534006529407563e+00  -7.8291456450563004e+00  -7.8077392633206992e+00  -7.7897470498080903e+00  -7.7756459306589223e+00  -7.7658050649777772e+00  -7.7604474287320926e+00  -7.7595132630281300e+00  -8.1340031083565361e+00  -8.1330590391885558e+00  -8.1270772888736627e+00  -8.1160432320825482e+00  -8.1002406303374777e+00  -8.0801086921457639e+00  -8.0562020810324686e+00  -8.0291695364192694e+00  -7.9997352793496104e+00  -7.9686802191417021e+00  -7.9368225804046917e+00  -7.9049980966296065e+00  -7.8740399965962773e+00  -7.8447590081226988e+00  -7.8179236096284903e+00  -7.7942407680065937e+00  -7.7743372976460829e+00  -7.7587413125957791e+00  -7.7478601746613842e+00  -7.7419374783732442e+00  -7.7409025481784095e+00  -8.1557833898519991e+00  -8.1547363738921099e+00  -8.1481002189709084e+00  -8.1358587480083866e+00  -8.1183267735740507e+00  -8.0959922755031126e+00  -8.0694718763995557e+00  -8.0394864980206027e+00  -8.0068401275731436e+00  -7.9723986660721851e+00  -7.9370685143523785e+00  -7.9017749920288143e+00  -7.8674406920071389e+00  -7.8349638388841818e+00  -7.8051967327837444e+00  -7.7789244112918423e+00  -7.7568436265049003e+00  -7.7395416178253535e+00  -7.7274709068313383e+00  -7.7209010946319623e+00  -7.7197520548171426e+00  -8.1802591856252178e+00  -8.1790933653855742e+00  -8.1717146231343722e+00  -8.1581073590181727e+00  -8.1386240778808787e+00  -8.1138098709410684e+00  -8.0843524289241486e+00  -8.0510542766470046e+00  -8.0148086212790801e+00  -7.9765756883805334e+00  -7.9373592322860365e+00  -7.8981832464989141e+00  -7.8600688058992025e+00  -7.8240108868821681e+00  -7.7909550321744359e+00  -7.7617738407421566e+00  -7.7372433267167935e+00  -7.7180186443960288e+00  -7.7046052053482565e+00  -7.6973043583510368e+00  -7.6960277015444065e+00  -8.2074695366506880e+00  -8.2061684730658850e+00  -8.1979563507268551e+00  -8.1828204719302295e+00  -8.1611583604713029e+00  -8.1335815361676485e+00  -8.1008588304771294e+00  -8.0638844588333765e+00  -8.0236505075681013e+00  -7.9812205820832496e+00  -7.9377043084208943e+00  -7.8942325858373081e+00  -7.8519332593546443e+00  -7.8119067251343024e+00  -7.7752010114384653e+00  -7.7427860775708419e+00  -7.7155272757091993e+00  -7.6941574846585867e+00  -7.6792437403477223e+00  -7.6711255499850095e+00  -7.6697075094513671e+00  -8.2374298722607282e+00  -8.2359763749755164e+00  -8.2268370487440414e+00  -8.2100050333063823e+00  -8.1859313631087840e+00  -8.1553046811992722e+00  -8.1189862502603667e+00  -8.0779728010722067e+00  -8.0333650328553592e+00  -7.9863383876376774e+00  -7.9381157551696448e+00  -7.8899417748741767e+00  -7.8430579915098644e+00  -7.7986778719710257e+00  -7.7579607330229488e+00  -7.7219839451272971e+00  -7.6917131741487408e+00  -7.6679701684453150e+00  -7.6513937495002651e+00  -7.6423691178134723e+00  -7.6407956132754897e+00  -8.2701155964120421e+00  -8.2684915735152984e+00  -8.2583278384391328e+00  -8.2396274041335094e+00  -8.2129051374050412e+00  -8.1789395007284895e+00  -8.1386971196676541e+00  -8.0932889278074125e+00  -8.0439338426426783e+00  -7.9919264999930446e+00  -7.9386085983772041e+00  -7.8853431248981991e+00  -7.8334900832205534e+00  -7.7843819755722485e+00  -7.7392973491495578e+00  -7.6994311833084499e+00  -7.6658615562693786e+00  -7.6395120640543537e+00  -7.6211055552613418e+00  -7.6110822253814829e+00  -7.6093388182457691e+00  -8.3054424167917098e+00  -8.3036287132163640e+00  -8.2923395580738433e+00  -8.2715936442334712e+00  -8.2419827844703821e+00  -8.2043908891647952e+00  -8.1599051558544584e+00  -8.1097634561690466e+00  -8.0553120974838990e+00  -7.9979704290779354e+00  -7.9392016091647806e+00  -7.8804881552462005e+00  -7.8233099429483266e+00  -7.7691218062578464e+00  -7.7193279691184831e+00  -7.6752511874072598e+00  -7.6380954889834713e+00  -7.6089018666663124e+00  -7.5884924923325423e+00  -7.5773745591851780e+00  -7.5754463801041947e+00  -8.3432426504031127e+00  -8.3412188313947535e+00  -8.3286987076702985e+00  -8.3057252211125494e+00  -8.2729844707545208e+00  -8.2314857503193810e+00  -8.1824552297984336e+00  -8.1272717390323024e+00  -8.0674172464872189e+00  -8.0044384374980382e+00  -7.9399182193343636e+00  -7.8754547358275575e+00  -7.8126441651416823e+00  -7.7530629112492315e+00  -7.6982448937227783e+00  -7.6496504830395935e+00  -7.6086250488318434e+00  -7.5763461617297754e+00  -7.5537551088657029e+00  -7.5414421765737387e+00  -7.5393137739950458e+00  -8.3832366260116249e+00  -8.3809806361163020e+00  -8.3671180544318773e+00  -8.3417289328523960e+00  -8.3056174031213104e+00  -8.2599444021533586e+00  -8.2060979274024959e+00  -8.1456133199967944e+00  -8.0801148483895542e+00  -8.0112747596815232e+00  -7.9407876428816344e+00  -7.8703560547398999e+00  -7.8016817268514025e+00  -7.7364558993516512e+00  -7.6763424260416260e+00  -7.6229482805009168e+00  -7.5777779171339796e+00  -7.5421697802819807e+00  -7.5172106846357192e+00  -7.5035963072670988e+00  -7.5012513402294019e+00  -8.4249981457508500e+00  -8.4224857276662011e+00  -8.4071606021353045e+00  -8.3791595131722616e+00  -8.3394381253007435e+00  -8.2893445296054544e+00  -8.2304575148793706e+00  -8.1644861542928719e+00  -8.0932008424583675e+00  -8.0183911200856013e+00  -7.9418462117964701e+00  -7.8653517199036997e+00  -7.7906941721925751e+00  -7.7196643802504203e+00  -7.6540506384826568e+00  -7.5956137352961459e+00  -7.5460377807570040e+00  -7.5068534978380539e+00  -7.4793293740495130e+00  -7.4642982168516747e+00  -7.4617188747664711e+00  -8.4679127233268190e+00  -8.4651164000407881e+00  -8.4481952281428203e+00  -8.4173729095344783e+00  -8.3738050764630909e+00  -8.3190758951360539e+00  -8.2549919903219333e+00  -8.1834547748803814e+00  -8.1063798375344422e+00  -8.0256563641920735e+00  -7.9431388997768577e+00  -7.8606611511473918e+00  -7.7800602458483628e+00  -7.7031994789302534e+00  -7.6319775621509089e+00  -7.5683128546209648e+00  -7.5140927032403297e+00  -7.4710811362363145e+00  -7.4407787003720998e+00  -7.4242015515669975e+00  -7.4213675199117350e+00  -8.5111269006622621e+00  -8.5080141782029077e+00  -8.4893416172545617e+00  -8.4554674831030372e+00  -8.4078188112989878e+00  -8.3482838722987882e+00  -8.2789441609515126e+00  -8.2019120749801360e+00  -8.1192394713980001e+00  -8.0328842783618448e+00  -7.9447209361580855e+00  -7.8565790359260932e+00  -7.7702948923180051e+00  -7.6877613755681118e+00  -7.6109611049688981e+00  -7.5419672691727193e+00  -7.4828962898446338e+00  -7.4357989353416070e+00  -7.4024788349604380e+00  -7.3842041181919287e+00  -7.3810908063260303e+00  -8.5534861932238293e+00  -8.5500163628420243e+00  -8.5294009123606660e+00  -8.4922091801438579e+00  -8.4402466250320636e+00  -8.3758000437094928e+00  -8.3012835811114574e+00  -8.2190355980544840e+00  -8.1312219698892871e+00  -8.0398202389970930e+00  -7.9466592789962709e+00  -7.8534918237242870e+00  -7.7620813231295021e+00  -7.6742871096499652e+00  -7.5921312710485207e+00  -7.5178271717540275e+00  -7.4537453710657688e+00  -7.4022914009537004e+00  -7.3656723583757868e+00  -7.3455120238198930e+00  -7.3420875984728085e+00  -8.5934578020717609e+00  -8.5895761478135064e+00  -8.5667662328651684e+00  -8.5259347476139862e+00  -8.4694276718629933e+00  -8.4000591040957246e+00  -8.3206413846667875e+00  -8.2337417803850386e+00  -8.1415961283522655e+00  -8.0461283955682514e+00  -7.9490334876310778e+00  -7.8518927527194950e+00  -7.7563024738745892e+00  -7.6640012772759700e+00  -7.5769812946036721e+00  -7.4975602031086934e+00  -7.4283790969718861e+00  -7.3722801248023249e+00  -7.3320145559550935e+00  -7.3097209365686640e+00  -7.3059413966811837e+00  -8.6290315147687249e+00  -8.6246584361722274e+00  -8.5993028095393260e+00  -8.5544238462121296e+00  -8.4931544987678596e+00  -8.4190042503233808e+00  -8.3352447546060642e+00  -8.2446464125809165e+00  -8.1494366069060824e+00  -8.0513828941640480e+00  -7.9519351811233125e+00  -7.8523904150698103e+00  -7.7540639325562131e+00  -7.6584611615090230e+00  -7.5674418538462618e+00  -7.4833559627320483e+00  -7.4091055840251432e+00  -7.3480560373848967e+00  -7.3036948614230131e+00  -7.2789228244952380e+00  -7.2747237642306697e+00  -8.6575869010845974e+00  -8.6525961919753165e+00  -8.6241787435537578e+00  -8.5747260477085412e+00  -8.5085288455614734e+00  -8.4299905444422016e+00  -8.3428670457857521e+00  -8.2500479009278198e+00  -8.1536232106741426e+00  -8.0550693587696500e+00  -7.9554647983095332e+00  -7.8557021563937699e+00  -7.7566935694255408e+00  -7.6595786586748673e+00  -7.5659432045860999e+00  -7.4780397974555441e+00  -7.3989626118160690e+00  -7.3326623377040994e+00  -7.2836092225183995e+00  -7.2558538635184071e+00  -7.2511363493081555e+00  -8.6757043161609975e+00  -8.6698756571030540e+00  -8.6376099242838329e+00  -8.5829230377829830e+00  -8.5117983157370656e+00  -8.4297123891589489e+00  -8.3408264961391243e+00  -8.2479627899608534e+00  -8.1528806868907893e+00  -8.0566062680573420e+00  -7.9597239068458965e+00  -7.8626189930645145e+00  -7.7656934245366589e+00  -7.6695862142463103e+00  -7.5754315956558687e+00  -7.4851739891540774e+00  -7.4019146783276462e+00  -7.3301562614173186e+00  -7.2756222859315614e+00  -7.2441150313246929e+00  -7.2387202260626911e+00  -8.6788755521019976e+00  -8.6717781926821687e+00  -8.6344488541813700e+00  -8.5738068614965801e+00  -8.4982088240428393e+00  -8.4142165463102643e+00  -8.3260943857825787e+00  -8.2362598181809119e+00  -8.1458876404175076e+00  -8.0553987887626928e+00  -7.9648011421058333e+00  -7.8739249307190260e+00  -7.7826088256166024e+00  -7.6908922925910623e+00  -7.5992722472031424e+00  -7.5090864598379810e+00  -7.4230673772792031e+00  -7.3459918132642903e+00  -7.2849997960041497e+00  -7.2485340356220647e+00  -7.2421939659763526e+00  -8.6610216192670695e+00  -8.6516985036884186e+00  -8.6074912519783968e+00  -8.5404918924493760e+00  -8.4619861658447366e+00  -8.3791297047678821e+00  -8.2956119264564236e+00  -8.2129532562072249e+00  -8.1314853594363399e+00  -8.0509367514485763e+00  -7.9707503098891701e+00  -7.8902546651853784e+00  -7.8087751836303223e+00  -7.7257495393842701e+00  -7.6409167786160817e+00  -7.5546804776115462e+00  -7.4688003466890187e+00  -7.3875621442448312e+00  -7.3191839311305795e+00  -7.2758350354119088e+00  -7.2680657401906341e+00  -8.6135756039621949e+00  -8.5996621528334209e+00  -8.5463380570876719e+00  -8.4741549237351528e+00  -8.3967483683139079e+00  -8.3203360443574450e+00  -8.2469464947275668e+00  -8.1767087591440468e+00  -8.1090000241196982e+00  -8.0429368877603302e+00  -7.9775593777449814e+00  -7.9118853815652841e+00  -7.8449188195320687e+00  -7.7756581404647500e+00  -7.7031542315228263e+00  -7.6267132868450238e+00  -7.5464664052745709e+00  -7.4647928996682058e+00  -7.3892653085261095e+00  -7.3360833398311582e+00  -7.3259156344742609e+00  -8.5231917974615019e+00  -8.4988398799670009e+00  -8.4359568933680773e+00  -8.3646965297511926e+00  -8.2970092048845689e+00  -8.2354321858348101e+00  -8.1793758794891662e+00  -8.1275404787905945e+00  -8.0786300379463700e+00  -8.0314937675779685e+00  -7.9851017680140597e+00  -7.9384802196284223e+00  -7.8906380225972912e+00  -7.8404899664230525e+00  -7.7867803443048489e+00  -7.7280368384530007e+00  -7.6626888292928479e+00  -7.5898527232312549e+00  -7.5124893418861181e+00  -7.4464881996590027e+00  -7.4316077392321169e+00  -8.3629739597905495e+00  -8.3177437629333504e+00  -8.2571769067210727e+00  -8.2046099269966088e+00  -8.1617761037211078e+00  -8.1260921815323446e+00  -8.0951988867432068e+00  -8.0674458855196178e+00  -8.0416931933158526e+00  -8.0171044777446898e+00  -7.9930062752641673e+00  -7.9687918736349781e+00  -7.9438442276554921e+00  -7.9174561265985721e+00  -7.8887236402237644e+00  -7.8563773201833920e+00  -7.8184982546661086e+00  -7.7721105535130990e+00  -7.7132499757478730e+00  -7.6428912645371190e+00  -7.6179136458882262e+00  -8.0000000000000000e+00  -8.0000000000000000e+00  -8.0000000000000000e+00  -8.0000000000000000e+00  -8.0000000000000000e+00  -8.0000000000000000e+00  -8.0000000000000000e+00  -8.0000000000000000e+00  -8.0000000000000000e+00  -8.0000000000000000e+00  -8.0000000000000000e+00  -8.0000000000000000e+00  -8.0000000000000000e+00  -8.0000000000000000e+00  -8.0000000000000000e+00  -8.0000000000000000e+00  -8.0000000000000000e+00  -8.0000000000000000e+00  -8.0000000000000000e+00  -8.0000000000000000e+00  -8.0000000000000000e+00  </DataArray> 
</PointData> 
</Piece>
</UnstructuredGrid>
</VTKFile>