<?xml version="1.0"?>
<VTKFile type="UnstructuredGrid"  version="0.1"  >
<UnstructuredGrid>
<Piece  NumberOfPoints="651" NumberOfCells="1200">
<Points>
<DataArray  type="Float64"  NumberOfComponents="3"  format="ascii">0 0 0  50000 0 0  100000 0 0  150000 0 0  200000 0 0  250000 0 0  300000 0 0  350000 0 0  400000 0 0  450000 0 0  500000 0 0  550000 0 0  600000 0 0  650000 0 0  700000 0 0  750000 0 0  800000 0 0  850000 0 0  900000 0 0  950000 0 0  1000000 0 0  0 50000 0  50000 50000 0  100000 50000 0  150000 50000 0  200000 50000 0  250000 50000 0  300000 50000 0  350000 50000 0  400000 50000 0  450000 50000 0  500000 50000 0  550000 50000 0  600000 50000 0  650000 50000 0  700000 50000 0  750000 50000 0  800000 50000 0  850000 50000 0  900000 50000 0  950000 50000 0  1000000 50000 0  0 100000 0  50000 100000 0  100000 100000 0  150000 100000 0  200000 100000 0  250000 100000 0  300000 100000 0  350000 100000 0  400000 100000 0  450000 100000 0  500000 100000 0  550000 100000 0  600000 100000 0  650000 100000 0  700000 100000 0  750000 100000 0  800000 100000 0  850000 100000 0  900000 100000 0  950000 100000 0  1000000 100000 0  0 150000 0  50000 150000 0  100000 150000 0  150000 150000 0  200000 150000 0  250000 150000 0  300000 150000 0  350000 150000 0  400000 150000 0  450000 150000 0  500000 150000 0  550000 150000 0  600000 150000 0  650000 150000 0  700000 150000 0  750000 150000 0  800000 150000 0  850000 150000 0  900000 150000 0  950000 150000 0  1000000 150000 0  0 200000 0  50000 200000 0  100000 200000 0  150000 200000 0  200000 200000 0  250000 200000 0  300000 200000 0  350000 200000 0  400000 200000 0  450000 200000 0  500000 200000 0  550000 200000 0  600000 200000 0  650000 200000 0  700000 200000 0  750000 200000 0  800000 200000 0  850000 200000 0  900000 200000 0  950000 200000 0  1000000 200000 0  0 250000 0  50000 250000 0  100000 250000 0  150000 250000 0  200000 250000 0  250000 250000 0  300000 250000 0  350000 250000 0  400000 250000 0  450000 250000 0  500000 250000 0  550000 250000 0  600000 250000 0  650000 250000 0  700000 250000 0  750000 250000 0  800000 250000 0  850000 250000 0  900000 250000 0  950000 250000 0  1000000 250000 0  0 300000 0  50000 300000 0  100000 300000 0  150000 300000 0  200000 300000 0  250000 300000 0  300000 300000 0  350000 300000 0  400000 300000 0  450000 300000 0  500000 300000 0  550000 300000 0  600000 300000 0  650000 300000 0  700000 300000 0  750000 300000 0  800000 300000 0  850000 300000 0  900000 300000 0  950000 300000 0  1000000 300000 0  0 350000 0  50000 350000 0  100000 350000 0  150000 350000 0  200000 350000 0  250000 350000 0  300000 350000 0  350000 350000 0  400000 350000 0  450000 350000 0  500000 350000 0  550000 350000 0  600000 350000 0  650000 350000 0  700000 350000 0  750000 350000 0  800000 350000 0  850000 350000 0  900000 350000 0  950000 350000 0  1000000 350000 0  0 400000 0  50000 400000 0  100000 400000 0  150000 400000 0  200000 400000 0  250000 400000 0  300000 400000 0  350000 400000 0  400000 400000 0  450000 400000 0  500000 400000 0  550000 400000 0  600000 400000 0  650000 400000 0  700000 400000 0  750000 400000 0  800000 400000 0  850000 400000 0  900000 400000 0  950000 400000 0  1000000 400000 0  0 450000 0  50000 450000 0  100000 450000 0  150000 450000 0  200000 450000 0  250000 450000 0  300000 450000 0  350000 450000 0  400000 450000 0  450000 450000 0  500000 450000 0  550000 450000 0  600000 450000 0  650000 450000 0  700000 450000 0  750000 450000 0  800000 450000 0  850000 450000 0  900000 450000 0  950000 450000 0  1000000 450000 0  0 500000 0  50000 500000 0  100000 500000 0  150000 500000 0  200000 500000 0  250000 500000 0  300000 500000 0  350000 500000 0  400000 500000 0  450000 500000 0  500000 500000 0  550000 500000 0  600000 500000 0  650000 500000 0  700000 500000 0  750000 500000 0  800000 500000 0  850000 500000 0  900000 500000 0  950000 500000 0  1000000 500000 0  0 550000 0  50000 550000 0  100000 550000 0  150000 550000 0  200000 550000 0  250000 550000 0  300000 550000 0  350000 550000 0  400000 550000 0  450000 550000 0  500000 550000 0  550000 550000 0  600000 550000 0  650000 550000 0  700000 550000 0  750000 550000 0  800000 550000 0  850000 550000 0  900000 550000 0  950000 550000 0  1000000 550000 0  0 600000 0  50000 600000 0  100000 600000 0  150000 600000 0  200000 600000 0  250000 600000 0  300000 600000 0  350000 600000 0  400000 600000 0  450000 600000 0  500000 600000 0  550000 600000 0  600000 600000 0  650000 600000 0  700000 600000 0  750000 600000 0  800000 600000 0  850000 600000 0  900000 600000 0  950000 600000 0  1000000 600000 0  0 650000 0  50000 650000 0  100000 650000 0  150000 650000 0  200000 650000 0  250000 650000 0  300000 650000 0  350000 650000 0  400000 650000 0  450000 650000 0  500000 650000 0  550000 650000 0  600000 650000 0  650000 650000 0  700000 650000 0  750000 650000 0  800000 650000 0  850000 650000 0  900000 650000 0  950000 650000 0  1000000 650000 0  0 700000 0  50000 700000 0  100000 700000 0  150000 700000 0  200000 700000 0  250000 700000 0  300000 700000 0  350000 700000 0  400000 700000 0  450000 700000 0  500000 700000 0  550000 700000 0  600000 700000 0  650000 700000 0  700000 700000 0  750000 700000 0  800000 700000 0  850000 700000 0  900000 700000 0  950000 700000 0  1000000 700000 0  0 750000 0  50000 750000 0  100000 750000 0  150000 750000 0  200000 750000 0  250000 750000 0  300000 750000 0  350000 750000 0  400000 750000 0  450000 750000 0  500000 750000 0  550000 750000 0  600000 750000 0  650000 750000 0  700000 750000 0  750000 750000 0  800000 750000 0  850000 750000 0  900000 750000 0  950000 750000 0  1000000 750000 0  0 800000 0  50000 800000 0  100000 800000 0  150000 800000 0  200000 800000 0  250000 800000 0  300000 800000 0  350000 800000 0  400000 800000 0  450000 800000 0  500000 800000 0  550000 800000 0  600000 800000 0  650000 800000 0  700000 800000 0  750000 800000 0  800000 800000 0  850000 800000 0  900000 800000 0  950000 800000 0  1000000 800000 0  0 850000 0  50000 850000 0  100000 850000 0  150000 850000 0  200000 850000 0  250000 850000 0  300000 850000 0  350000 850000 0  400000 850000 0  450000 850000 0  500000 850000 0  550000 850000 0  600000 850000 0  650000 850000 0  700000 850000 0  750000 850000 0  800000 850000 0  850000 850000 0  900000 850000 0  950000 850000 0  1000000 850000 0  0 900000 0  50000 900000 0  100000 900000 0  150000 900000 0  200000 900000 0  250000 900000 0  300000 900000 0  350000 900000 0  400000 900000 0  450000 900000 0  500000 900000 0  550000 900000 0  600000 900000 0  650000 900000 0  700000 900000 0  750000 900000 0  800000 900000 0  850000 900000 0  900000 900000 0  950000 900000 0  1000000 900000 0  0 950000 0  50000 950000 0  100000 950000 0  150000 950000 0  200000 950000 0  250000 950000 0  300000 950000 0  350000 950000 0  400000 950000 0  450000 950000 0  500000 950000 0  550000 950000 0  600000 950000 0  650000 950000 0  700000 950000 0  750000 950000 0  800000 950000 0  850000 950000 0  900000 950000 0  950000 950000 0  1000000 950000 0  0 1000000 0  50000 1000000 0  100000 1000000 0  150000 1000000 0  200000 1000000 0  250000 1000000 0  300000 1000000 0  350000 1000000 0  400000 1000000 0  450000 1000000 0  500000 1000000 0  550000 1000000 0  600000 1000000 0  650000 1000000 0  700000 1000000 0  750000 1000000 0  800000 1000000 0  850000 1000000 0  900000 1000000 0  950000 1000000 0  1000000 1000000 0  0 1050000 0  50000 1050000 0  100000 1050000 0  150000 1050000 0  200000 1050000 0  250000 1050000 0  300000 1050000 0  350000 1050000 0  400000 1050000 0  450000 1050000 0  500000 1050000 0  550000 1050000 0  600000 1050000 0  650000 1050000 0  700000 1050000 0  750000 1050000 0  800000 1050000 0  850000 1050000 0  900000 1050000 0  950000 1050000 0  1000000 1050000 0  0 1100000 0  50000 1100000 0  100000 1100000 0  150000 1100000 0  200000 1100000 0  250000 1100000 0  300000 1100000 0  350000 1100000 0  400000 1100000 0  450000 1100000 0  500000 1100000 0  550000 1100000 0  600000 1100000 0  650000 1100000 0  700000 1100000 0  750000 1100000 0  800000 1100000 0  850000 1100000 0  900000 1100000 0  950000 1100000 0  1000000 1100000 0  0 1150000 0  50000 1150000 0  100000 1150000 0  150000 1150000 0  200000 1150000 0  250000 1150000 0  300000 1150000 0  350000 1150000 0  400000 1150000 0  450000 1150000 0  500000 1150000 0  550000 1150000 0  600000 1150000 0  650000 1150000 0  700000 1150000 0  750000 1150000 0  800000 1150000 0  850000 1150000 0  900000 1150000 0  950000 1150000 0  1000000 1150000 0  0 1200000 0  50000 1200000 0  100000 1200000 0  150000 1200000 0  200000 1200000 0  250000 1200000 0  300000 1200000 0  350000 1200000 0  400000 1200000 0  450000 1200000 0  500000 1200000 0  550000 1200000 0  600000 1200000 0  650000 1200000 0  700000 1200000 0  750000 1200000 0  800000 1200000 0  850000 1200000 0  900000 1200000 0  950000 1200000 0  1000000 1200000 0  0 1250000 0  50000 1250000 0  100000 1250000 0  150000 1250000 0  200000 1250000 0  250000 1250000 0  300000 1250000 0  350000 1250000 0  400000 1250000 0  450000 1250000 0  500000 1250000 0  550000 1250000 0  600000 1250000 0  650000 1250000 0  700000 1250000 0  750000 1250000 0  800000 1250000 0  850000 1250000 0  900000 1250000 0  950000 1250000 0  1000000 1250000 0  0 1300000 0  50000 1300000 0  100000 1300000 0  150000 1300000 0  200000 1300000 0  250000 1300000 0  300000 1300000 0  350000 1300000 0  400000 1300000 0  450000 1300000 0  500000 1300000 0  550000 1300000 0  600000 1300000 0  650000 1300000 0  700000 1300000 0  750000 1300000 0  800000 1300000 0  850000 1300000 0  900000 1300000 0  950000 1300000 0  1000000 1300000 0  0 1350000 0  50000 1350000 0  100000 1350000 0  150000 1350000 0  200000 1350000 0  250000 1350000 0  300000 1350000 0  350000 1350000 0  400000 1350000 0  450000 1350000 0  500000 1350000 0  550000 1350000 0  600000 1350000 0  650000 1350000 0  700000 135
[...]
<PointData  Scalars="f_1511"> 
<DataArray  type="Float64"  Name="f_1511"  format="ascii">-8.0480623824237139e+00  -8.0473916279710487e+00  -8.0440716569087165e+00  -8.0380926619550834e+00  -8.0296103032963426e+00  -8.0188507280054271e+00  -8.0061000879589788e+00  -7.9916964046896304e+00  -7.9760205266922242e+00  -7.9594860013606290e+00  -7.9425281158249241e+00  -7.9255924036420202e+00  -7.9091229162493892e+00  -7.8935505611594303e+00  -7.8792818204676589e+00  -7.8666882071607365e+00  -7.8560969833204339e+00  -7.8477841865324400e+00  -7.8419716415503213e+00  -7.8388161543043680e+00  -7.8381362994869761e+00  -8.0486992467225367e+00  -8.0480437182196614e+00  -8.0446760252077834e+00  -8.0386575390874722e+00  -8.0301313589546588e+00  -8.0193193776954423e+00  -8.0065066964522451e+00  -7.9920318481218890e+00  -7.9762769871363890e+00  -7.9596574106777371e+00  -7.9426104186763080e+00  -7.9255837034399388e+00  -7.9090235265003672e+00  -7.8933629637979372e+00  -7.8790105102128400e+00  -7.8663393371890695e+00  -7.8556774587762161e+00  -7.8472987476582396e+00  -7.8414130252224439e+00  -7.8381455948033798e+00  -7.8374658241767037e+00  -8.0518175566105938e+00  -8.0512086580729196e+00  -8.0477638964995553e+00  -8.0415638306277852e+00  -8.0327800083539884e+00  -8.0216456986746962e+00  -8.0084546120296203e+00  -7.9935543903789430e+00  -7.9773375044398591e+00  -7.9602306599042558e+00  -7.9426833247055484e+00  -7.9251557485884216e+00  -7.9081067716855502e+00  -7.8919817089898379e+00  -7.8772006060289099e+00  -7.8641471809173691e+00  -7.8531587993509282e+00  -7.8445178333902801e+00  -7.8384444047476647e+00  -7.8350872440912340e+00  -7.8344792203738098e+00  -8.0573772594436388e+00  -8.0567757798914919e+00  -8.0532024299918792e+00  -8.0467078822219857e+00  -8.0374811785880365e+00  -8.0257771709281176e+00  -8.0119091782749638e+00  -7.9962443933898051e+00  -7.9791958226745310e+00  -7.9612118863327526e+00  -7.9427646982629980e+00  -7.9243376437464397e+00  -7.9064126783712378e+00  -7.8894577013249716e+00  -7.8739143540076411e+00  -7.8601866433688787e+00  -7.8486308870509323e+00  -7.8395475283530294e+00  -7.8331745274557285e+00  -7.8296749775825081e+00  -7.8290668838907580e+00  -8.0652900409250314e+00  -8.0646717416206588e+00  -8.0608954768206225e+00  -8.0539860166637798e+00  -8.0441396743965292e+00  -8.0316332539608197e+00  -8.0168065815608429e+00  -8.0000554298859896e+00  -7.9818231267381172e+00  -7.9625899467524892e+00  -7.9428609824906813e+00  -7.9231531586721280e+00  -7.9039818905168229e+00  -7.8858478026258494e+00  -7.8692239123216714e+00  -7.8545437211687119e+00  -7.8421907012927417e+00  -7.8324894458966288e+00  -7.8256969585745129e+00  -7.8219830371806278e+00  -7.8213410252578131e+00  -8.0755049478062002e+00  -8.0748517052228159e+00  -8.0707952289722442e+00  -8.0633430429229538e+00  -8.0526987853670917e+00  -8.0391618436410557e+00  -8.0231031220799753e+00  -8.0049543237131253e+00  -7.9851979210587629e+00  -7.9643556133353570e+00  -7.9429754088159985e+00  -7.9216178392263368e+00  -7.9008417883315669e+00  -7.8811903637810312e+00  -7.8631772257333115e+00  -7.8472737951394835e+00  -7.8338977117107609e+00  -7.8234024427456363e+00  -7.8160656195579676e+00  -7.8120633702252302e+00  -7.8113691217972008e+00  -8.0880056815618833e+00  -8.0873021089417527e+00  -8.0828888495746920e+00  -8.0747627888972975e+00  -8.0631389457649458e+00  -8.0483425136551006e+00  -8.0307802046724799e+00  -8.0109263335776824e+00  -7.9893106464857260e+00  -7.9665052820551061e+00  -7.9431106540243066e+00  -7.9197405775805976e+00  -7.8970070390834808e+00  -7.8755049959800161e+00  -7.8557975832935725e+00  -7.8384020901619031e+00  -7.8237769557645516e+00  -7.8123094447463428e+00  -7.8043011418888169e+00  -7.7999376634442257e+00  -7.7991774489665833e+00  -8.1028034750496669e+00  -8.1020353432267083e+00  -8.0971894362110461e+00  -8.0882563052733563e+00  -8.0754675981256110e+00  -8.0591793236554015e+00  -8.0398396652657613e+00  -8.0179723732774448e+00  -7.9941623685911134e+00  -7.9690408951560148e+00  -7.9432698874177596e+00  -7.9175257515280535e+00  -7.8924828615456075e+00  -7.8687970780529781e+00  -7.8470895943576000e+00  -7.8279314020509947e+00  -7.8118285441835784e+00  -7.7992077116667131e+00  -7.7903991194698765e+00  -7.7856021966489237e+00  -7.7847636460684928e+00  -8.1199291917638750e+00  -8.1190826529773883e+00  -8.1137280453230414e+00  -8.1038524280041440e+00  -8.0897095895097504e+00  -8.0716924063782489e+00  -8.0502971201071816e+00  -8.0261042175186628e+00  -7.9997617871554150e+00  -7.9719686912977359e+00  -7.9434572162591053e+00  -7.9149753332326878e+00  -7.8872687730402502e+00  -7.8610631164432014e+00  -7.8370461070064303e+00  -7.8158504008755818e+00  -7.7980368757147254e+00  -7.7840780300236361e+00  -7.7743382650744941e+00  -7.7690354649799191e+00  -7.7681065933133180e+00  -8.1394248727309861e+00  -8.1384860283744267e+00  -8.1325455678748888e+00  -8.1215891744843969e+00  -8.1058984151203752e+00  -8.0859098034199164e+00  -8.0621750245541808e+00  -8.0353391631295494e+00  -8.0061216972055771e+00  -7.9752975591186095e+00  -7.9436779582093573e+00  -7.9120910522614416e+00  -7.8813625604700031e+00  -7.8522963799337093e+00  -7.8256552794764538e+00  -7.8021417905353498e+00  -7.7823793836018247e+00  -7.7668934693693812e+00  -7.7560888596975577e+00  -7.7502067108690920e+00  -7.7491755547001002e+00  -8.1613344158693035e+00  -8.1602890408402260e+00  -8.1536837552200847e+00  -8.1415047686485078e+00  -8.1240673654404887e+00  -8.1018591582661603e+00  -8.0754954291784120e+00  -8.0456942951707848e+00  -8.0132550896986281e+00  -7.9790371738159998e+00  -7.9439388998781642e+00  -7.9088767523562984e+00  -7.8747646057862681e+00  -7.8424929630178877e+00  -7.8129080553819037e+00  -7.7867907882952254e+00  -7.7648355733448335e+00  -7.7476286009325142e+00  -7.7356220103517028e+00  -7.7290853644953081e+00  -7.7279398130295549e+00  -8.1856929646167345e+00  -8.1845263121735297e+00  -8.1771748852520272e+00  -8.1636274987923549e+00  -8.1442397081692537e+00  -8.1195585623949729e+00  -8.0902719565415779e+00  -8.0571800718771449e+00  -8.0211707474970471e+00  -7.9831958840482047e+00  -7.9442486077051369e+00  -7.9053411043917423e+00  -7.8674828290638956e+00  -7.8316586549527489e+00  -7.7988065544275020e+00  -7.7697945819772460e+00  -7.7453971117953824e+00  -7.7262698950525133e+00  -7.7129202148932041e+00  -7.7056517758655279e+00  -7.7043794839871893e+00  -8.2125145248863625e+00  -8.2112111747323109e+00  -8.2030295697142623e+00  -8.1879637561500846e+00  -8.1664171579475227e+00  -8.1390058315570446e+00  -8.1065003920399565e+00  -8.0697927773038796e+00  -8.0298680496651098e+00  -7.9877782251511640e+00  -7.9446178271363568e+00  -7.9015008675283607e+00  -7.8595385913124955e+00  -7.8198170969611915e+00  -7.7833739831104012e+00  -7.7511734543494430e+00  -7.7240796747731713e+00  -7.7028279333698091e+00  -7.6879897515526343e+00  -7.6799097178241320e+00  -7.6784980575447737e+00  -8.2417772705418564e+00  -8.2403209942156685e+00  -8.2312221402680432e+00  -8.2144835981800330e+00  -8.1905658968292236e+00  -8.1601654637535628e+00  -8.1241472108794959e+00  -8.0835052981716959e+00  -8.0393306146086321e+00  -7.9927818837608626e+00  -7.9450599969321738e+00  -7.8973849237100557e+00  -7.8509739663815195e+00  -7.8070197944489639e+00  -7.7666667477467053e+00  -7.7309843139798522e+00  -7.7009372802480645e+00  -7.6773520919124829e+00  -7.6608754661092755e+00  -7.6519012001270159e+00  -7.6503372204198188e+00  -8.2734059307406174e+00  -8.2717795467231472e+00  -8.2616729582298305e+00  -8.2431030955363571e+00  -8.2165993288807702e+00  -8.1829524462810177e+00  -8.1431352730156039e+00  -8.0982555953896878e+00  -8.0495183450396510e+00  -7.9981939011149272e+00  -7.9455919034486975e+00  -7.8930393457203252e+00  -7.8418608598571904e+00  -7.7933586440830940e+00  -7.7487895559200259e+00  -7.7093374726796524e+00  -7.6760799258740517e+00  -7.6499484378977600e+00  -7.6316786141969004e+00  -7.6217242044473759e+00  -7.6199945662741051e+00  -8.3072505727667796e+00  -8.3054357522136453e+00  -8.2942268740507661e+00  -8.2736625803760067e+00  -8.2443566034869438e+00  -8.2072119376500883e+00  -8.1633257958858323e+00  -8.1139321464401757e+00  -8.0603573745592065e+00  -8.0039858703723823e+00  -7.9462344989854330e+00  -7.8885337913253908e+00  -7.8323125213052229e+00  -7.7789817409461879e+00  -7.7299144292088737e+00  -7.6864176648373848e+00  -7.6496955060239475e+00  -7.6208017245828632e+00  -7.6005785321042927e+00  -7.5895540388645060e+00  -7.5876448793941664e+00  -8.3430609924888639e+00  -8.3410379532279411e+00  -8.3286269038552287e+00  -8.3058997119858908e+00  -8.2735757279921796e+00  -8.2326936606067864e+00  -8.1844955738232752e+00  -8.1303555469398212e+00  -8.0717273696198504e+00  -8.0101078630718572e+00  -7.9470139043594612e+00  -7.8839695316536815e+00  -7.8224980459672935e+00  -7.7641133320326725e+00  -7.7103047099961515e+00  -7.6625105115371106e+00  -7.6220772085972079e+00  -7.5902025740199095e+00  -7.5678590704100799e+00  -7.5556691299345236e+00  -7.5535657871885364e+00  -8.3804557829574904e+00  -8.3782027680538231e+00  -8.3644819616092470e+00  -8.3394159877707761e+00  -8.3038598028489012e+00  -8.2590196208079565e+00  -8.2063082899284758e+00  -8.1472554241011323e+00  -8.0834456514739177e+00  -8.0164808317867866e+00  -7.9479626030222983e+00  -7.8794893904899004e+00  -7.8126604476853583e+00  -7.7490788337297021e+00  -7.6903452980363056e+00  -7.6380358862003721e+00  -7.5936579027080509e+00  -7.5585812373017562e+00  -7.5339409618248387e+00  -7.5204822450855282e+00  -7.5181687379212923e+00  -8.4188849323252288e+00  -8.4163772969749697e+00  -8.4012271275282746e+00  -8.3736349001890265e+00  -8.3346345349747661e+00  -8.2856435475941499e+00  -8.2282787397107828e+00  -8.1642419268021325e+00  -8.0952477512905610e+00  -8.0229873220649086e+00  -7.9491208031439164e+00  -7.8752897347274251e+00  -7.8031387162661892e+00  -7.7343357377916782e+00  -7.6705804297771412e+00  -7.6135899188800256e+00  -7.5650534558201379e+00  -7.5265497765908336e+00  -7.4994216694248035e+00  -7.4845784165815203e+00  -7.4820365177257706e+00  -8.4575844300391712e+00  -8.4547930295924054e+00  -8.4380743292928848e+00  -8.4077492756115007e+00  -8.3650947000609985e+00  -8.3118003237935980e+00  -8.2497290161688017e+00  -8.1807714972552645e+00  -8.1067644447493379e+00  -8.0294605616262960e+00  -7.9505378803193807e+00  -7.8716343132383937e+00  -7.7943937851778564e+00  -7.7205108095527120e+00  -7.6517601706540104e+00  -7.5899976268002005e+00  -7.5371175088755296e+00  -7.4949552363280620e+00  -7.4651248949600495e+00  -7.4487613169776976e+00  -7.4459689647502216e+00  -8.4955206871121440e+00  -8.4924090094067370e+00  -8.4739502296208098e+00  -8.4406542570165488e+00  -8.3941366368493373e+00  -8.3364438286815314e+00  -8.2697365074473144e+00  -8.1961077211402458e+00  -8.1174962768390468e+00  -8.0356725001641482e+00  -7.9522736943164274e+00  -7.8688690270562818e+00  -7.7870372483567971e+00  -7.7084428975730432e+00  -7.6348961336634709e+00  -7.5683782323781079e+00  -7.5110110447557608e+00  -7.4649475704073875e+00  -7.4321630579900146e+00  -7.4141107055363520e+00  -7.4110393451357437e+00  -8.5313213115148905e+00  -8.5278402833131626e+00  -8.5074160816676176e+00  -8.4708606218685869e+00  -8.4202732692954303e+00  -8.3581725122549599e+00  -8.2870755261910389e+00  -8.2092803396301779e+00  -8.1267884616476653e+00  -8.0413223260010156e+00  -7.9543993688864969e+00  -7.8674353877057497e+00  -7.7818595340470473e+00  -7.6992283376002355e+00  -7.6213251836006908e+00  -7.5502247636156739e+00  -7.4882911311113833e+00  -7.4380681421720922e+00  -7.4020181660552851e+00  -7.3820552094814094e+00  -7.3786653787469545e+00  -8.5631863474116869e+00  -8.5592645832568177e+00  -8.5365603711433149e+00  -8.4963802428651274e+00  -8.4415280021553656e+00  -8.3751446513320271e+00  -8.3001586053843504e+00  -8.2190498231768085e+00  -8.1338123270357769e+00  -8.0460285996996443e+00  -7.9569968072401771e+00  -7.8678781941544580e+00  -7.7798504475956864e+00  -7.6942613777360531e+00  -7.6127759042933425e+00  -7.5374976491796275e+00  -7.4710243371365568e+00  -7.4163681641414563e+00  -7.3766505802272375e+00  -7.3544679244623374e+00  -7.3507018712212862e+00  -8.5887693258729971e+00  -8.5842936592854464e+00  -8.5588472360757670e+00  -8.5145711399589121e+00  -8.4553055605149332e+00  -8.3849917762429147e+00  -8.3069917975569609e+00  -8.2238923514631832e+00  -8.1375646493328766e+00  -8.0493305722068271e+00  -7.9601557950434270e+00  -7.8708396371925744e+00  -7.7821988617971556e+00  -7.6952538361547305e+00  -7.6114242570048809e+00  -7.5327266259419909e+00  -7.4619306418725495e+00  -7.4025725175688937e+00  -7.3586533827624407e+00  -7.3337988859088039e+00  -7.3295679097643891e+00  -8.6050079872422209e+00  -8.5997808990567020e+00  -8.5708880072188833e+00  -8.5219244952681272e+00  -8.4582456777684794e+00  -8.3847536657150918e+00  -8.3051734629564766e+00  -8.2220315773486572e+00  -8.1369032624415834e+00  -8.0507073186313445e+00  -7.9639671241640508e+00  -7.8770279116191748e+00  -7.7902496733262172e+00  -7.7042046411066769e+00  -7.6199083163761028e+00  -7.5391013707964305e+00  -7.4645598991164466e+00  -7.4003141649840067e+00  -7.3514871760353149e+00  -7.3232726353959690e+00  -7.3184343442928252e+00  -8.6078651230972465e+00  -8.6015005381111518e+00  -8.5680729546273842e+00  -8.5137764560567426e+00  -8.4460908709774483e+00  -8.3708899046099869e+00  -8.2919910360211233e+00  -8.2115586066088522e+00  -8.1306445530758662e+00  -8.0496259374294876e+00  -7.9685100218383198e+00  -7.8871450145064088e+00  -7.8053866694059888e+00  -7.7232704879244469e+00  -7.6412414630130518e+00  -7.5604972473285539e+00  -7.4834838088129993e+00  -7.4144768635293241e+00  -7.3598672936309910e+00  -7.3272123563426179e+00  -7.3215265451617695e+00  -8.5918966524594822e+00  -8.5835370546026493e+00  -8.5439502783089782e+00  -8.4839605223774175e+00  -8.4136697678622436e+00  -8.3394835070129236e+00  -8.2647046684003005e+00  -8.1906945939544791e+00  -8.1177504193347705e+00  -8.0456292833438354e+00  -7.9738325758886894e+00  -7.9017593898244467e+00  -7.8288058971553793e+00  -7.7544688283061634e+00  -7.6785147273013772e+00  -7.6013050160394391e+00  -7.5244149816260553e+00  -7.4516807785765566e+00  -7.3904580504661066e+00  -7.3516396342868200e+00  -7.3446725470207710e+00  -8.5494300237507517e+00  -8.5369575168228522e+00  -8.4892068668325731e+00  -8.4245745134497323e+00  -8.3552660652083972e+00  -8.2868474277710451e+00  -8.2211347178397283e+00  -8.1582436398253684e+00  -8.0976167736647469e+00  -8.0384633524364038e+00  -7.9799240198753658e+00  -7.9211195850250640e+00  -7.8611583657417352e+00  -7.7991438193549438e+00  -7.7342264050712926e+00  -7.6657851943149291e+00  -7.5939376975715422e+00  -7.5208136643227661e+00  -7.4531906273671229e+00  -7.4055681469753063e+00  -7.3964513346880638e+00  -8.4685117627077151e+00  -8.4466899040091672e+00  -8.3903795593827173e+00  -8.3265722207634756e+00  -8.2659644509839811e+00  -8.2108271715174563e+00  -8.1606325499376684e+00  -8.1142170219910188e+00  -8.0704204305333231e+00  -8.0282125152240180e+00  -7.9866712126598749e+00  -7.9449246603800079e+00  -7.9020855430872530e+00  -7.8571823336609699e+00  -7.8090909385986720e+00  -7.7564934469218372e+00  -7.6979840454270416e+00  -7.6327718840372425e+00  -7.5635067086066918e+00  -7.5044085665362834e+00  -7.4910691646382865e+00  -8.3250483980507930e+00  -8.2845332771600546e+00  -8.2302970306756400e+00  -8.1832270990194456e+00  -8.1448720725095054e+00  -8.1129185594450028e+00  -8.0852543500778999e+00  -8.0604019595611298e+00  -8.0373407510174157e+00  -8.0153219069931918e+00  -7.9937424126924759e+00  -7.9720590171650150e+00  -7.9497192296307588e+00  -7.9260898566218092e+00  -7.9003616241859644e+00  -7.8713980915365322e+00  -7.8374815014539188e+00  -7.7959479749930249e+00  -7.7432485849632986e+00  -7.6802539115348569e+00  -7.6578732574197703e+00  -8.0000000000000000e+00  -8.0000000000000000e+00  -8.0000000000000000e+00  -8.0000000000000000e+00  -8.0000000000000000e+00  -8.0000000000000000e+00  -8.0000000000000000e+00  -8.0000000000000000e+00  -8.0000000000000000e+00  -8.0000000000000000e+00  -8.0000000000000000e+00  -8.0000000000000000e+00  -8.0000000000000000e+00  -8.0000000000000000e+00  -8.0000000000000000e+00  -8.0000000000000000e+00  -8.0000000000000000e+00  -8.0000000000000000e+00  -8.0000000000000000e+00  -8.0000000000000000e+00  -8.0000000000000000e+00  </DataArray> 
</PointData> 
</Piece>
</UnstructuredGrid>
</VTKFile>