<?xml version="1.0"?>
<VTKFile type="UnstructuredGrid"  version="0.1"  >
<UnstructuredGrid>
<Piece  NumberOfPoints="651" NumberOfCells="1200">
<Points>
<DataArray  type="Float64"  NumberOfComponents="3"  format="ascii">0 0 0  50000 0 0  100000 0 0  150000 0 0  200000 0 0  250000 0 0  300000 0 0  350000 0 0  400000 0 0  450000 0 0  500000 0 0  550000 0 0  600000 0 0  650000 0 0  700000 0 0  750000 0 0  800000 0 0  850000 0 0  900000 0 0  950000 0 0  1000000 0 0  0 50000 0  50000 50000 0  100000 50000 0  150000 50000 0  200000 50000 0  250000 50000 0  300000 50000 0  350000 50000 0  400000 50000 0  450000 50000 0  500000 50000 0  550000 50000 0  600000 50000 0  650000 50000 0  700000 50000 0  750000 50000 0  800000 50000 0  850000 50000 0  900000 50000 0  950000 50000 0  1000000 50000 0  0 100000 0  50000 100000 0  100000 100000 0  150000 100000 0  200000 100000 0  250000 100000 0  300000 100000 0  350000 100000 0  400000 100000 0  450000 100000 0  500000 100000 0  550000 100000 0  600000 100000 0  650000 100000 0  700000 100000 0  750000 100000 0  800000 100000 0  850000 100000 0  900000 100000 0  950000 100000 0  1000000 100000 0  0 150000 0  50000 150000 0  100000 150000 0  150000 150000 0  200000 150000 0  250000 150000 0  300000 150000 0  350000 150000 0  400000 150000 0  450000 150000 0  500000 150000 0  550000 150000 0  600000 150000 0  650000 150000 0  700000 150000 0  750000 150000 0  800000 150000 0  850000 150000 0  900000 150000 0  950000 150000 0  1000000 150000 0  0 200000 0  50000 200000 0  100000 200000 0  150000 200000 0  200000 200000 0  250000 200000 0  300000 200000 0  350000 200000 0  400000 200000 0  450000 200000 0  500000 200000 0  550000 200000 0  600000 200000 0  650000 200000 0  700000 200000 0  750000 200000 0  800000 200000 0  850000 200000 0  900000 200000 0  950000 200000 0  1000000 200000 0  0 250000 0  50000 250000 0  100000 250000 0  150000 250000 0  200000 250000 0  250000 250000 0  300000 250000 0  350000 250000 0  400000 250000 0  450000 250000 0  500000 250000 0  550000 250000 0  600000 250000 0  650000 250000 0  700000 250000 0  750000 250000 0  800000 250000 0  850000 250000 0  900000 250000 0  950000 250000 0  1000000 250000 0  0 300000 0  50000 300000 0  100000 300000 0  150000 300000 0  200000 300000 0  250000 300000 0  300000 300000 0  350000 300000 0  400000 300000 0  450000 300000 0  500000 300000 0  550000 300000 0  600000 300000 0  650000 300000 0  700000 300000 0  750000 300000 0  800000 300000 0  850000 300000 0  900000 300000 0  950000 300000 0  1000000 300000 0  0 350000 0  50000 350000 0  100000 350000 0  150000 350000 0  200000 350000 0  250000 350000 0  300000 350000 0  350000 350000 0  400000 350000 0  450000 350000 0  500000 350000 0  550000 350000 0  600000 350000 0  650000 350000 0  700000 350000 0  750000 350000 0  800000 350000 0  850000 350000 0  900000 350000 0  950000 350000 0  1000000 350000 0  0 400000 0  50000 400000 0  100000 400000 0  150000 400000 0  200000 400000 0  250000 400000 0  300000 400000 0  350000 400000 0  400000 400000 0  450000 400000 0  500000 400000 0  550000 400000 0  600000 400000 0  650000 400000 0  700000 400000 0  750000 400000 0  800000 400000 0  850000 400000 0  900000 400000 0  950000 400000 0  1000000 400000 0  0 450000 0  50000 450000 0  100000 450000 0  150000 450000 0  200000 450000 0  250000 450000 0  300000 450000 0  350000 450000 0  400000 450000 0  450000 450000 0  500000 450000 0  550000 450000 0  600000 450000 0  650000 450000 0  700000 450000 0  750000 450000 0  800000 450000 0  850000 450000 0  900000 450000 0  950000 450000 0  1000000 450000 0  0 500000 0  50000 500000 0  100000 500000 0  150000 500000 0  200000 500000 0  250000 500000 0  300000 500000 0  350000 500000 0  400000 500000 0  450000 500000 0  500000 500000 0  550000 500000 0  600000 500000 0  650000 500000 0  700000 500000 0  750000 500000 0  800000 500000 0  850000 500000 0  900000 500000 0  950000 500000 0  1000000 500000 0  0 550000 0  50000 550000 0  100000 550000 0  150000 550000 0  200000 550000 0  250000 550000 0  300000 550000 0  350000 550000 0  400000 550000 0  450000 550000 0  500000 550000 0  550000 550000 0  600000 550000 0  650000 550000 0  700000 550000 0  750000 550000 0  800000 550000 0  850000 550000 0  900000 550000 0  950000 550000 0  1000000 550000 0  0 600000 0  50000 600000 0  100000 600000 0  150000 600000 0  200000 600000 0  250000 600000 0  300000 600000 0  350000 600000 0  400000 600000 0  450000 600000 0  500000 600000 0  550000 600000 0  600000 600000 0  650000 600000 0  700000 600000 0  750000 600000 0  800000 600000 0  850000 600000 0  900000 600000 0  950000 600000 0  1000000 600000 0  0 650000 0  50000 650000 0  100000 650000 0  150000 650000 0  200000 650000 0  250000 650000 0  300000 650000 0  350000 650000 0  400000 650000 0  450000 650000 0  500000 650000 0  550000 650000 0  600000 650000 0  650000 650000 0  700000 650000 0  750000 650000 0  800000 650000 0  850000 650000 0  900000 650000 0  950000 650000 0  1000000 650000 0  0 700000 0  50000 700000 0  100000 700000 0  150000 700000 0  200000 700000 0  250000 700000 0  300000 700000 0  350000 700000 0  400000 700000 0  450000 700000 0  500000 700000 0  550000 700000 0  600000 700000 0  650000 700000 0  700000 700000 0  750000 700000 0  800000 700000 0  850000 700000 0  900000 700000 0  950000 700000 0  1000000 700000 0  0 750000 0  50000 750000 0  100000 750000 0  150000 750000 0  200000 750000 0  250000 750000 0  300000 750000 0  350000 750000 0  400000 750000 0  450000 750000 0  500000 750000 0  550000 750000 0  600000 750000 0  650000 750000 0  700000 750000 0  750000 750000 0  800000 750000 0  850000 750000 0  900000 750000 0  950000 750000 0  1000000 750000 0  0 800000 0  50000 800000 0  100000 800000 0  150000 800000 0  200000 800000 0  250000 800000 0  300000 800000 0  350000 800000 0  400000 800000 0  450000 800000 0  500000 800000 0  550000 800000 0  600000 800000 0  650000 800000 0  700000 800000 0  750000 800000 0  800000 800000 0  850000 800000 0  900000 800000 0  950000 800000 0  1000000 800000 0  0 850000 0  50000 850000 0  100000 850000 0  150000 850000 0  200000 850000 0  250000 850000 0  300000 850000 0  350000 850000 0  400000 850000 0  450000 850000 0  500000 850000 0  550000 850000 0  600000 850000 0  650000 850000 0  700000 850000 0  750000 850000 0  800000 850000 0  850000 850000 0  900000 850000 0  950000 850000 0  1000000 850000 0  0 900000 0  50000 900000 0  100000 900000 0  150000 900000 0  200000 900000 0  250000 900000 0  300000 900000 0  350000 900000 0  400000 900000 0  450000 900000 0  500000 900000 0  550000 900000 0  600000 900000 0  650000 900000 0  700000 900000 0  750000 900000 0  800000 900000 0  850000 900000 0  900000 900000 0  950000 900000 0  1000000 900000 0  0 950000 0  50000 950000 0  100000 950000 0  150000 950000 0  200000 950000 0  250000 950000 0  300000 950000 0  350000 950000 0  400000 950000 0  450000 950000 0  500000 950000 0  550000 950000 0  600000 950000 0  650000 950000 0  700000 950000 0  750000 950000 0  800000 950000 0  850000 950000 0  900000 950000 0  950000 950000 0  1000000 950000 0  0 1000000 0  50000 1000000 0  100000 1000000 0  150000 1000000 0  200000 1000000 0  250000 1000000 0  300000 1000000 0  350000 1000000 0  400000 1000000 0  450000 1000000 0  500000 1000000 0  550000 1000000 0  600000 1000000 0  650000 1000000 0  700000 1000000 0  750000 1000000 0  800000 1000000 0  850000 1000000 0  900000 1000000 0  950000 1000000 0  1000000 1000000 0  0 1050000 0  50000 1050000 0  100000 1050000 0  150000 1050000 0  200000 1050000 0  250000 1050000 0  300000 1050000 0  350000 1050000 0  400000 1050000 0  450000 1050000 0  500000 1050000 0  550000 1050000 0  600000 1050000 0  650000 1050000 0  700000 1050000 0  750000 1050000 0  800000 1050000 0  850000 1050000 0  900000 1050000 0  950000 1050000 0  1000000 1050000 0  0 1100000 0  50000 1100000 0  100000 1100000 0  150000 1100000 0  200000 1100000 0  250000 1100000 0  300000 1100000 0  350000 1100000 0  400000 1100000 0  450000 1100000 0  500000 1100000 0  550000 1100000 0  600000 1100000 0  650000 1100000 0  700000 1100000 0  750000 1100000 0  800000 1100000 0  850000 1100000 0  900000 1100000 0  950000 1100000 0  1000000 1100000 0  0 1150000 0  50000 1150000 0  100000 1150000 0  150000 1150000 0  200000 1150000 0  250000 1150000 0  300000 1150000 0  350000 1150000 0  400000 1150000 0  450000 1150000 0  500000 1150000 0  550000 1150000 0  600000 1150000 0  650000 1150000 0  700000 1150000 0  750000 1150000 0  800000 1150000 0  850000 1150000 0  900000 1150000 0  950000 1150000 0  1000000 1150000 0  0 1200000 0  50000 1200000 0  100000 1200000 0  150000 1200000 0  200000 1200000 0  250000 1200000 0  300000 1200000 0  350000 1200000 0  400000 1200000 0  450000 1200000 0  500000 1200000 0  550000 1200000 0  600000 1200000 0  650000 1200000 0  700000 1200000 0  750000 1200000 0  800000 1200000 0  850000 1200000 0  900000 1200000 0  950000 1200000 0  1000000 1200000 0  0 1250000 0  50000 1250000 0  100000 1250000 0  150000 1250000 0  200000 1250000 0  250000 1250000 0  300000 1250000 0  350000 1250000 0  400000 1250000 0  450000 1250000 0  500000 1250000 0  550000 1250000 0  600000 1250000 0  650000 1250000 0  700000 1250000 0  750000 1250000 0  800000 1250000 0  850000 1250000 0  900000 1250000 0  950000 1250000 0  1000000 1250000 0  0 1300000 0  50000 1300000 0  100000 1300000 0  150000 1300000 0  200000 1300000 0  250000 1300000 0  300000 1300000 0  350000 1300000 0  400000 1300000 0  450000 1300000 0  500000 1300000 0  550000 1300000 0  600000 1300000 0  650000 1300000 0  700000 1300000 0  750000 1300000 0  800000 1300000 0  850000 1300000 0  900000 1300000 0  950000 1300000 0  1000000 1300000 0  0 1350000 0  50000 1350000 0  100000 1350000 0  150000 1350000 0  200000 1350000 0  250000 1350000 0  300000 1350000 0  350000 1350000 0  400000 1350000 0  450000 1350000 0  500000 1350000 0  550000 1350000 0  600000 1350000 0  650000 1350000 0  700000 135
[...]
<PointData  Scalars="f_1511"> 
<DataArray  type="Float64"  Name="f_1511"  format="ascii">-8.0492051001632472e+00  -8.0485195911369782e+00  -8.0451226699529528e+00  -8.0390042169338649e+00  -8.0303235926970409e+00  -8.0193122837261210e+00  -8.0062631778575639e+00  -7.9915222419748799e+00  -7.9754792685402460e+00  -7.9585575112926570e+00  -7.9412024705962398e+00  -7.9238701322706664e+00  -7.9070149657476430e+00  -7.8910779905396238e+00  -7.8764752318800877e+00  -7.8635869313681681e+00  -7.8527480490710904e+00  -7.8442411283053399e+00  -7.8382932405273902e+00  -7.8350649292268324e+00  -7.8343704908174896e+00  -8.0498581629297554e+00  -8.0491879876964276e+00  -8.0457420084282560e+00  -8.0395830006820788e+00  -8.0308574275801945e+00  -8.0197924072704296e+00  -8.0066797466137540e+00  -7.9918659326541057e+00  -7.9757420922517923e+00  -7.9587332683683876e+00  -7.9412870200911287e+00  -7.9238615415291633e+00  -7.9069135630802698e+00  -7.8908863226783383e+00  -7.8761979047712121e+00  -7.8632302476079960e+00  -7.8523190801194467e+00  -7.8437447284989936e+00  -7.8377219743838875e+00  -7.8343791052373799e+00  -7.8336847956750280e+00  -8.0530508932403855e+00  -8.0524282879351272e+00  -8.0489032671775202e+00  -8.0425582718317070e+00  -8.0335688878178768e+00  -8.0221738719343776e+00  -8.0086738383446292e+00  -7.9934245941821978e+00  -7.9768278229282945e+00  -7.9593202426393361e+00  -7.9413618651890197e+00  -7.9234237362793634e+00  -7.9059754597201577e+00  -7.8894727994653788e+00  -7.8743456615414225e+00  -7.8609867783741754e+00  -7.8497414501940694e+00  -7.8408987026150871e+00  -7.8346838609553080e+00  -7.8312491939015700e+00  -7.8306283786653754e+00  -8.0587422072250252e+00  -8.0581270940157363e+00  -8.0544703588762072e+00  -8.0478238526161512e+00  -8.0383810765061714e+00  -8.0264028822152511e+00  -8.0122099542873322e+00  -7.9961781097389295e+00  -7.9787300496061500e+00  -7.9603247160060633e+00  -7.9414452982853154e+00  -7.9225865207970578e+00  -7.9042416455840794e+00  -7.8868895512750221e+00  -7.8709822472904163e+00  -7.8569332320830307e+00  -7.8451072041547620e+00  -7.8358116866843304e+00  -7.8292902645970743e+00  -7.8257099054496573e+00  -7.8250890561810555e+00  -8.0668416610228633e+00  -8.0662092612258469e+00  -8.0623447727868793e+00  -8.0552735269911810e+00  -8.0451964706457630e+00  -8.0323969289175938e+00  -8.0172227201279380e+00  -8.0000789146629270e+00  -7.9814192481808846e+00  -7.9617352658684322e+00  -7.9415439104985657e+00  -7.9213742337104680e+00  -7.9017537432099987e+00  -7.8831948120154962e+00  -7.8661815630732850e+00  -7.8511576833173260e+00  -7.8385156651437375e+00  -7.8285877507319857e+00  -7.8216370165267941e+00  -7.8178372878162978e+00  -7.8171817519753457e+00  -8.0772970477787247e+00  -8.0766288344029356e+00  -8.0724775039705090e+00  -8.0648507276923009e+00  -8.0539569500836361e+00  -8.0401026142157583e+00  -8.0236673506291396e+00  -8.0050930069491084e+00  -7.9848733847716362e+00  -7.9635424277788314e+00  -7.9416610028588766e+00  -7.9198027930363573e+00  -7.8985397956530461e+00  -7.8784278648768939e+00  -7.8599927216891139e+00  -7.8437168640600081e+00  -7.8300277558564693e+00  -7.8192871928023227e+00  -7.8117793633563206e+00  -7.8076845669933066e+00  -7.8069755921796755e+00  -8.0900916327891910e+00  -8.0893718776868404e+00  -8.0848553548817446e+00  -8.0765388407201417e+00  -8.0646424278724904e+00  -8.0494989746753696e+00  -8.0315247639250220e+00  -8.0112052585950995e+00  -7.9890826459889155e+00  -7.9657424947931386e+00  -7.9417993084488003e+00  -7.9178813047744097e+00  -7.8946148306747093e+00  -7.8726088077735721e+00  -7.8524395940884792e+00  -7.8346366336193114e+00  -7.8196691487886456e+00  -7.8079335271665595e+00  -7.7997384728326793e+00  -7.7952739926781796e+00  -7.7944975246551396e+00  -8.1052368636746710e+00  -8.1044510221047457e+00  -8.0994916794473237e+00  -8.0903491245639412e+00  -8.0772604706491791e+00  -8.0605901179198671e+00  -8.0407967973132575e+00  -8.0184165706096646e+00  -7.9940480970014685e+00  -7.9683374389734656e+00  -7.9419620651997045e+00  -7.9156142536816070e+00  -7.8899842033016414e+00  -7.8657431683202974e+00  -7.8435269280199158e+00  -7.8239198899448947e+00  -7.8074399986317005e+00  -7.7945239942261519e+00  -7.7855098832325025e+00  -7.7806018075930430e+00  -7.7797451843181245e+00  -8.1227642829500528e+00  -8.1218981994348436e+00  -8.1164182167277996e+00  -8.1063110465238299e+00  -8.0918364650293224e+00  -8.0733966088574025e+00  -8.0514993980899607e+00  -8.0267389649493310e+00  -7.9997786201986942e+00  -7.9713336321346340e+00  -7.9421534722121105e+00  -7.9130036623907216e+00  -7.8846474321521258e+00  -7.8578273914336307e+00  -7.8332474311709586e+00  -7.8115550706406429e+00  -7.7933243763713680e+00  -7.7790389720053117e+00  -7.7690718534919023e+00  -7.7636460503987292e+00  -7.7626970045837371e+00  -8.1427168755327379e+00  -8.1417563415656620e+00  -8.1356767740748559e+00  -8.1244634744260189e+00  -8.1084046529380753e+00  -8.0879471113300294e+00  -8.0636555174629816e+00  -8.0361901190749130e+00  -8.0062872923820567e+00  -7.9747401604802377e+00  -7.9423789687497175e+00  -7.9100513057845863e+00  -7.8786022646367693e+00  -7.8488546076483887e+00  -7.8215890102337164e+00  -7.7975245059378926e+00  -7.7772992229692059e+00  -7.7614509396622999e+00  -7.7503940122529862e+00  -7.7443752891927460e+00  -7.7433215762865402e+00  -8.1651395287837083e+00  -8.1640700007153377e+00  -8.1573100414763804e+00  -8.1448454898233624e+00  -8.1269990694853949e+00  -8.1042698846997538e+00  -8.0772876953746628e+00  -8.0467874965422599e+00  -8.0135873933376836e+00  -7.9785669171925182e+00  -7.9426454989127446e+00  -7.9067611234190922e+00  -7.8718491045375778e+00  -7.8388208396051482e+00  -7.8085424225404694e+00  -7.7818130982845499e+00  -7.7593436002335689e+00  -7.7417339133480843e+00  -7.7294468336650155e+00  -7.7227582842592764e+00  -7.7215875095857252e+00  -8.1900681719343122e+00  -8.1888745712148729e+00  -8.1813510149105664e+00  -8.1674860073661648e+00  -8.1476434939115610e+00  -8.1223834144897769e+00  -8.0924098483994804e+00  -8.0585417809323587e+00  -8.0216878981572606e+00  -7.9828224396092242e+00  -7.9429618298326501e+00  -7.9031419962978724e+00  -7.8643960713435934e+00  -7.8277320326400259e+00  -7.7941098640587354e+00  -7.7644180018319506e+00  -7.7394490169752661e+00  -7.7198740878542509e+00  -7.7062124503079765e+00  -7.6987749721993897e+00  -7.6974745020275321e+00  -8.2175171027122023e+00  -8.2161836603826295e+00  -8.2078105178028782e+00  -8.1923915329030876e+00  -8.1703396488730693e+00  -8.1422854370820712e+00  -8.1090176398163845e+00  -8.0714491514073661e+00  -8.0305881596341333e+00  -7.9875113641114055e+00  -7.9433389602335742e+00  -7.8992110845469670e+00  -7.8562650415347264e+00  -7.8156124033091787e+00  -7.7783151124971370e+00  -7.7453600076304827e+00  -7.7176315543233063e+00  -7.6958823349999772e+00  -7.6806973330692383e+00  -7.6724292619764149e+00  -7.6709861738830432e+00  -8.2474639487669759e+00  -8.2459740677044895e+00  -8.2366622450146156e+00  -8.2195313888444215e+00  -8.1950528936716989e+00  -8.1639395923729055e+00  -8.1270767379807278e+00  -8.0854818436321949e+00  -8.0402714026050592e+00  -7.9926313197332481e+00  -7.9437906468489583e+00  -7.8949979564381145e+00  -7.8474990907920823e+00  -7.8025146860327803e+00  -7.7612159238905480e+00  -7.7246973911721595e+00  -7.6939465343178108e+00  -7.6698092302818521e+00  -7.6529474243151547e+00  -7.6437641956398847e+00  -7.6421652374528177e+00  -8.2798316431118728e+00  -8.2781677498208435e+00  -8.2678246589865587e+00  -8.2488196484315495e+00  -8.2216945756788302e+00  -8.1872588522402516e+00  -8.1465081768282399e+00  -8.1005763517974874e+00  -8.0506965829941333e+00  -7.9981690428007557e+00  -7.9443340741339181e+00  -7.8905497750854821e+00  -7.8381718262388995e+00  -7.7885329531714742e+00  -7.7429194871824469e+00  -7.7025430820824923e+00  -7.6685065697297023e+00  -7.6417633679687098e+00  -7.6230663971952497e+00  -7.6128800978287172e+00  -7.6111116211831931e+00  -8.3144667112297981e+00  -8.3126100571960908e+00  -8.3011389460738698e+00  -8.2800928759706558e+00  -8.2501000519782632e+00  -8.2120847278569133e+00  -8.1671699075274375e+00  -8.1166185310088164e+00  -8.0617880996656872e+00  -8.0040954622298450e+00  -7.9449906919422633e+00  -7.8859378421962818e+00  -7.8283991678529903e+00  -7.7738187916525483e+00  -7.7236018812460889e+00  -7.6790861745331620e+00  -7.6415039930394677e+00  -7.6119338696189249e+00  -7.5912378324789724e+00  -7.5799564288918493e+00  -7.5780042503295206e+00  -8.3511130636522921e+00  -8.3490434124637698e+00  -8.3363420786682152e+00  -8.3130825637414834e+00  -8.2800011743382900e+00  -8.2381610649137684e+00  -8.1888334860998775e+00  -8.1334247694132067e+00  -8.0734228001043107e+00  -8.0103594844304418e+00  -7.9457872418093398e+00  -7.8812658142294136e+00  -7.8183541890879829e+00  -7.7586017226512647e+00  -7.7035326424431290e+00  -7.6546190093623308e+00  -7.6132388928675221e+00  -7.5806182012998082e+00  -7.5577522690445660e+00  -7.5452781787880525e+00  -7.5431272980383159e+00  -8.3893803429084581e+00  -8.3870754370463327e+00  -8.3730337946348037e+00  -8.3473808616451493e+00  -8.3109917364812276e+00  -8.2651010089984371e+00  -8.2111547158783686e+00  -8.1507183630442039e+00  -8.0854137320592887e+00  -8.0168802189880832e+00  -7.9467569793318233e+00  -7.8766798740927806e+00  -7.8082856120476913e+00  -7.7432148033827080e+00  -7.6831057072367841e+00  -7.6295713186458265e+00  -7.5841543042283943e+00  -7.5482567215080367e+00  -7.5230403266946153e+00  -7.5092678176340062e+00  -7.5069018855548144e+00  -8.4287056492985606e+00  -8.4261402762812470e+00  -8.4106359392920904e+00  -8.3823977582414244e+00  -8.3424839963642423e+00  -8.2923455002128534e+00  -8.2336370366336329e+00  -8.1681003410054984e+00  -8.0974902453635060e+00  -8.0235374743398147e+00  -7.9479410685109739e+00  -7.8723810018627418e+00  -7.7985403800249014e+00  -7.7281262547157539e+00  -7.6628780734753814e+00  -7.6045532103801134e+00  -7.5548805364118907e+00  -7.5154758471049536e+00  -7.4877134835244421e+00  -7.4725241037610228e+00  -7.4699244738934087e+00  -8.4683070890366245e+00  -8.4654514326040182e+00  -8.4483419970409166e+00  -8.4173071917230615e+00  -8.3736538899452988e+00  -8.3191115236407196e+00  -8.2555866880045219e+00  -8.1850144392346866e+00  -8.1092744914101491e+00  -8.0301605930385804e+00  -7.9493900586452249e+00  -7.8686391369712805e+00  -7.7895902314604371e+00  -7.7139775276771276e+00  -7.6436173778082361e+00  -7.5804090272311893e+00  -7.5262912260462649e+00  -7.4831424645676528e+00  -7.4526147383502792e+00  -7.4358695399824217e+00  -7.4330136434732097e+00  -8.5071268994626497e+00  -8.5039436060928200e+00  -8.4850535314784263e+00  -8.4509784702785282e+00  -8.4033719515357070e+00  -8.3443285032395043e+00  -8.2760594951557067e+00  -8.2007070385423670e+00  -8.1202553547565177e+00  -8.0365162133714367e+00  -7.9511652322951276e+00  -7.8658082931878672e+00  -7.7820610867911242e+00  -7.7016271119548074e+00  -7.6263589143826307e+00  -7.5582841886340590e+00  -7.4995745285252884e+00  -7.4524334412568489e+00  -7.4188825461761132e+00  -7.4004091586066130e+00  -7.3972677839059280e+00  -8.5437606117642364e+00  -8.5401994775308427e+00  -8.5192981733694051e+00  -8.4818875694712812e+00  -8.4301163551738387e+00  -8.3665621418218752e+00  -8.2938011386912169e+00  -8.2141852226992640e+00  -8.1297627691967449e+00  -8.0422965192446352e+00  -7.9533394036032776e+00  -7.8643403305793802e+00  -7.7767618788964379e+00  -7.6921969985003136e+00  -7.6124708249902886e+00  -7.5397066482451516e+00  -7.4763239311043765e+00  -7.4249261893666230e+00  -7.3880335733851634e+00  -7.3676049985089156e+00  -7.3641377749087109e+00  -8.5763662226027666e+00  -8.5723542169615587e+00  -8.5491197613132517e+00  -8.5079999234363157e+00  -8.4518643378329692e+00  -8.3839277039123044e+00  -8.3071870852132168e+00  -8.2241805297293791e+00  -8.1369487325167480e+00  -8.0471111917449623e+00  -7.9559964223277797e+00  -7.8647928100995541e+00  -7.7747055729811159e+00  -7.6871140457150942e+00  -7.6037221156213786e+00  -7.5266826721561433e+00  -7.4586543156653917e+00  -7.4027198682397177e+00  -7.3620739988492057e+00  -7.3393739332139978e+00  -7.3355217772755861e+00  -8.6025424739226022e+00  -8.5979638205517777e+00  -8.5719232293954288e+00  -8.5266118659795218e+00  -8.4659600310588257e+00  -8.3940014296988927e+00  -8.3141768512161125e+00  -8.2291335881155874e+00  -8.1407866302663372e+00  -8.0504887598782844e+00  -7.9592282082198729e+00  -7.8678229569636411e+00  -7.7771088448016199e+00  -7.6881300908793371e+00  -7.6023396099113985e+00  -7.5218011226530344e+00  -7.4493492247118720e+00  -7.3886030259498456e+00  -7.3436574811379218e+00  -7.3182232294959295e+00  -7.3138953938180045e+00  -8.6191556316006928e+00  -8.6138082496475690e+00  -8.5842408231345537e+00  -8.5341326831124800e+00  -8.4689647455420687e+00  -8.3937540260418224e+00  -8.3123127758581976e+00  -8.2272266324509378e+00  -8.1401076824368808e+00  -8.0518961829190552e+00  -7.9631277117993644e+00  -7.8741555338313471e+00  -7.7853480233095107e+00  -7.6972907693342956e+00  -7.6110230210014764e+00  -7.5283262012497456e+00  -7.4520414443927843e+00  -7.3862934829918334e+00  -7.3363254346378861e+00  -7.3074527191891763e+00  -7.3025035223972274e+00  -8.6220742894693139e+00  -8.6155631673811914e+00  -8.5813552617976061e+00  -8.5257897045914106e+00  -8.4565216809593871e+00  -8.3795625163751257e+00  -8.2988190659599610e+00  -8.2165062983572739e+00  -8.1337007227271432e+00  -8.0507881763990881e+00  -7.9677760454307016e+00  -7.8845089430876421e+00  -7.8008392075401067e+00  -7.7168031340395533e+00  -7.6328561013029415e+00  -7.5502237871163551e+00  -7.4714094571861640e+00  -7.4007890495320412e+00  -7.3449032782032999e+00  -7.3114864933468686e+00  -7.3056701762772063e+00  -8.6057273866862101e+00  -8.5971750994980791e+00  -8.5566642516673923e+00  -8.4952726079449565e+00  -8.4233389014929809e+00  -8.3474186527842420e+00  -8.2708920883082957e+00  -8.1951523669108166e+00  -8.1205035305064683e+00  -8.0466969935668313e+00  -7.9732224439888615e+00  -7.8994648826785800e+00  -7.8248063211640320e+00  -7.7487316794684773e+00  -7.6710020031672661e+00  -7.5919871465524933e+00  -7.5132992834480996e+00  -7.4388644919544786e+00  -7.3762109026851608e+00  -7.3364866546920107e+00  -7.3293594195478686e+00  -8.5622635010075339e+00  -8.5495028153089621e+00  -8.5006374939476324e+00  -8.4344950098705738e+00  -8.3635669728514674e+00  -8.2935496380384954e+00  -8.2263016073931219e+00  -8.1619412525171562e+00  -8.0998980748692908e+00  -8.0393627808030157e+00  -7.9794558911726554e+00  -7.9192776311145323e+00  -7.8579154394793411e+00  -7.7944517725480731e+00  -7.7280171760064613e+00  -7.6579761470910288e+00  -7.5844489158554032e+00  -7.5096151473657944e+00  -7.4404113799719243e+00  -7.3916772095345085e+00  -7.3823504585759201e+00  -8.4794507131534971e+00  -8.4571228484259482e+00  -8.3994979873305891e+00  -8.3342000611756042e+00  -8.2721764028769051e+00  -8.2157512027745252e+00  -8.1643842762500753e+00  -8.1168848105530582e+00  -8.0720654909431140e+00  -8.0288719514515723e+00  -7.9863605616396560e+00  -7.9436390678748090e+00  -7.8997993982759347e+00  -7.8538472894613314e+00  -7.8046323258371562e+00  -7.7508057159015697e+00  -7.6909286865237698e+00  -7.6241918412828973e+00  -7.5533071455815541e+00  -7.4928285484397517e+00  -7.4791811161986113e+00  -8.3326350002154719e+00  -8.2911768657504172e+00  -8.2356745035106123e+00  -8.1875051715702956e+00  -8.1482543975298309e+00  -8.1155548167418363e+00  -8.0872448066366491e+00  -8.0618123126107655e+00  -8.0382128283288292e+00  -8.0156800334451752e+00  -7.9935968235233172e+00  -7.9714072554791500e+00  -7.9485459277939441e+00  -7.9243648437283110e+00  -7.8980357983118168e+00  -7.8683957495916843e+00  -7.8336867099865515e+00  -7.7911823993484122e+00  -7.7372508301898071e+00  -7.6727834226135858e+00  -7.6498834819633093e+00  -8.0000000000000000e+00  -8.0000000000000000e+00  -8.0000000000000000e+00  -8.0000000000000000e+00  -8.0000000000000000e+00  -8.0000000000000000e+00  -8.0000000000000000e+00  -8.0000000000000000e+00  -8.0000000000000000e+00  -8.0000000000000000e+00  -8.0000000000000000e+00  -8.0000000000000000e+00  -8.0000000000000000e+00  -8.0000000000000000e+00  -8.0000000000000000e+00  -8.0000000000000000e+00  -8.0000000000000000e+00  -8.0000000000000000e+00  -8.0000000000000000e+00  -8.0000000000000000e+00  -8.0000000000000000e+00  </DataArray> 
</PointData> 
</Piece>
</UnstructuredGrid>
</VTKFile>