<?xml version="1.0"?>
<VTKFile type="UnstructuredGrid"  version="0.1"  >
<UnstructuredGrid>
<Piece  NumberOfPoints="651" NumberOfCells="1200">
<Points>
<DataArray  type="Float64"  NumberOfComponents="3"  format="ascii">0 0 0  50000 0 0  100000 0 0  150000 0 0  200000 0 0  250000 0 0  300000 0 0  350000 0 0  400000 0 0  450000 0 0  500000 0 0  550000 0 0  600000 0 0  650000 0 0  700000 0 0  750000 0 0  800000 0 0  850000 0 0  900000 0 0  950000 0 0  1000000 0 0  0 50000 0  50000 50000 0  100000 50000 0  150000 50000 0  200000 50000 0  250000 50000 0  300000 50000 0  350000 50000 0  400000 50000 0  450000 50000 0  500000 50000 0  550000 50000 0  600000 50000 0  650000 50000 0  700000 50000 0  750000 50000 0  800000 50000 0  850000 50000 0  900000 50000 0  950000 50000 0  1000000 50000 0  0 100000 0  50000 100000 0  100000 100000 0  150000 100000 0  200000 100000 0  250000 100000 0  300000 100000 0  350000 100000 0  400000 100000 0  450000 100000 0  500000 100000 0  550000 100000 0  600000 100000 0  650000 100000 0  700000 100000 0  750000 100000 0  800000 100000 0  850000 100000 0  900000 100000 0  950000 100000 0  1000000 100000 0  0 150000 0  50000 150000 0  100000 150000 0  150000 150000 0  200000 150000 0  250000 150000 0  300000 150000 0  350000 150000 0  400000 150000 0  450000 150000 0  500000 150000 0  550000 150000 0  600000 150000 0  650000 150000 0  700000 150000 0  750000 150000 0  800000 150000 0  850000 150000 0  900000 150000 0  950000 150000 0  1000000 150000 0  0 200000 0  50000 200000 0  100000 200000 0  150000 200000 0  200000 200000 0  250000 200000 0  300000 200000 0  350000 200000 0  400000 200000 0  450000 200000 0  500000 200000 0  550000 200000 0  600000 200000 0  650000 200000 0  700000 200000 0  750000 200000 0  800000 200000 0  850000 200000 0  900000 200000 0  950000 200000 0  1000000 200000 0  0 250000 0  50000 250000 0  100000 250000 0  150000 250000 0  200000 250000 0  250000 250000 0  300000 250000 0  350000 250000 0  400000 250000 0  450000 250000 0  500000 250000 0  550000 250000 0  600000 250000 0  650000 250000 0  700000 250000 0  750000 250000 0  800000 250000 0  850000 250000 0  900000 250000 0  950000 250000 0  1000000 250000 0  0 300000 0  50000 300000 0  100000 300000 0  150000 300000 0  200000 300000 0  250000 300000 0  300000 300000 0  350000 300000 0  400000 300000 0  450000 300000 0  500000 300000 0  550000 300000 0  600000 300000 0  650000 300000 0  700000 300000 0  750000 300000 0  800000 300000 0  850000 300000 0  900000 300000 0  950000 300000 0  1000000 300000 0  0 350000 0  50000 350000 0  100000 350000 0  150000 350000 0  200000 350000 0  250000 350000 0  300000 350000 0  350000 350000 0  400000 350000 0  450000 350000 0  500000 350000 0  550000 350000 0  600000 350000 0  650000 350000 0  700000 350000 0  750000 350000 0  800000 350000 0  850000 350000 0  900000 350000 0  950000 350000 0  1000000 350000 0  0 400000 0  50000 400000 0  100000 400000 0  150000 400000 0  200000 400000 0  250000 400000 0  300000 400000 0  350000 400000 0  400000 400000 0  450000 400000 0  500000 400000 0  550000 400000 0  600000 400000 0  650000 400000 0  700000 400000 0  750000 400000 0  800000 400000 0  850000 400000 0  900000 400000 0  950000 400000 0  1000000 400000 0  0 450000 0  50000 450000 0  100000 450000 0  150000 450000 0  200000 450000 0  250000 450000 0  300000 450000 0  350000 450000 0  400000 450000 0  450000 450000 0  500000 450000 0  550000 450000 0  600000 450000 0  650000 450000 0  700000 450000 0  750000 450000 0  800000 450000 0  850000 450000 0  900000 450000 0  950000 450000 0  1000000 450000 0  0 500000 0  50000 500000 0  100000 500000 0  150000 500000 0  200000 500000 0  250000 500000 0  300000 500000 0  350000 500000 0  400000 500000 0  450000 500000 0  500000 500000 0  550000 500000 0  600000 500000 0  650000 500000 0  700000 500000 0  750000 500000 0  800000 500000 0  850000 500000 0  900000 500000 0  950000 500000 0  1000000 500000 0  0 550000 0  50000 550000 0  100000 550000 0  150000 550000 0  200000 550000 0  250000 550000 0  300000 550000 0  350000 550000 0  400000 550000 0  450000 550000 0  500000 550000 0  550000 550000 0  600000 550000 0  650000 550000 0  700000 550000 0  750000 550000 0  800000 550000 0  850000 550000 0  900000 550000 0  950000 550000 0  1000000 550000 0  0 600000 0  50000 600000 0  100000 600000 0  150000 600000 0  200000 600000 0  250000 600000 0  300000 600000 0  350000 600000 0  400000 600000 0  450000 600000 0  500000 600000 0  550000 600000 0  600000 600000 0  650000 600000 0  700000 600000 0  750000 600000 0  800000 600000 0  850000 600000 0  900000 600000 0  950000 600000 0  1000000 600000 0  0 650000 0  50000 650000 0  100000 650000 0  150000 650000 0  200000 650000 0  250000 650000 0  300000 650000 0  350000 650000 0  400000 650000 0  450000 650000 0  500000 650000 0  550000 650000 0  600000 650000 0  650000 650000 0  700000 650000 0  750000 650000 0  800000 650000 0  850000 650000 0  900000 650000 0  950000 650000 0  1000000 650000 0  0 700000 0  50000 700000 0  100000 700000 0  150000 700000 0  200000 700000 0  250000 700000 0  300000 700000 0  350000 700000 0  400000 700000 0  450000 700000 0  500000 700000 0  550000 700000 0  600000 700000 0  650000 700000 0  700000 700000 0  750000 700000 0  800000 700000 0  850000 700000 0  900000 700000 0  950000 700000 0  1000000 700000 0  0 750000 0  50000 750000 0  100000 750000 0  150000 750000 0  200000 750000 0  250000 750000 0  300000 750000 0  350000 750000 0  400000 750000 0  450000 750000 0  500000 750000 0  550000 750000 0  600000 750000 0  650000 750000 0  700000 750000 0  750000 750000 0  800000 750000 0  850000 750000 0  900000 750000 0  950000 750000 0  1000000 750000 0  0 800000 0  50000 800000 0  100000 800000 0  150000 800000 0  200000 800000 0  250000 800000 0  300000 800000 0  350000 800000 0  400000 800000 0  450000 800000 0  500000 800000 0  550000 800000 0  600000 800000 0  650000 800000 0  700000 800000 0  750000 800000 0  800000 800000 0  850000 800000 0  900000 800000 0  950000 800000 0  1000000 800000 0  0 850000 0  50000 850000 0  100000 850000 0  150000 850000 0  200000 850000 0  250000 850000 0  300000 850000 0  350000 850000 0  400000 850000 0  450000 850000 0  500000 850000 0  550000 850000 0  600000 850000 0  650000 850000 0  700000 850000 0  750000 850000 0  800000 850000 0  850000 850000 0  900000 850000 0  950000 850000 0  1000000 850000 0  0 900000 0  50000 900000 0  100000 900000 0  150000 900000 0  200000 900000 0  250000 900000 0  300000 900000 0  350000 900000 0  400000 900000 0  450000 900000 0  500000 900000 0  550000 900000 0  600000 900000 0  650000 900000 0  700000 900000 0  750000 900000 0  800000 900000 0  850000 900000 0  900000 900000 0  950000 900000 0  1000000 900000 0  0 950000 0  50000 950000 0  100000 950000 0  150000 950000 0  200000 950000 0  250000 950000 0  300000 950000 0  350000 950000 0  400000 950000 0  450000 950000 0  500000 950000 0  550000 950000 0  600000 950000 0  650000 950000 0  700000 950000 0  750000 950000 0  800000 950000 0  850000 950000 0  900000 950000 0  950000 950000 0  1000000 950000 0  0 1000000 0  50000 1000000 0  100000 1000000 0  150000 1000000 0  200000 1000000 0  250000 1000000 0  300000 1000000 0  350000 1000000 0  400000 1000000 0  450000 1000000 0  500000 1000000 0  550000 1000000 0  600000 1000000 0  650000 1000000 0  700000 1000000 0  750000 1000000 0  800000 1000000 0  850000 1000000 0  900000 1000000 0  950000 1000000 0  1000000 1000000 0  0 1050000 0  50000 1050000 0  100000 1050000 0  150000 1050000 0  200000 1050000 0  250000 1050000 0  300000 1050000 0  350000 1050000 0  400000 1050000 0  450000 1050000 0  500000 1050000 0  550000 1050000 0  600000 1050000 0  650000 1050000 0  700000 1050000 0  750000 1050000 0  800000 1050000 0  850000 1050000 0  900000 1050000 0  950000 1050000 0  1000000 1050000 0  0 1100000 0  50000 1100000 0  100000 1100000 0  150000 1100000 0  200000 1100000 0  250000 1100000 0  300000 1100000 0  350000 1100000 0  400000 1100000 0  450000 1100000 0  500000 1100000 0  550000 1100000 0  600000 1100000 0  650000 1100000 0  700000 1100000 0  750000 1100000 0  800000 1100000 0  850000 1100000 0  900000 1100000 0  950000 1100000 0  1000000 1100000 0  0 1150000 0  50000 1150000 0  100000 1150000 0  150000 1150000 0  200000 1150000 0  250000 1150000 0  300000 1150000 0  350000 1150000 0  400000 1150000 0  450000 1150000 0  500000 1150000 0  550000 1150000 0  600000 1150000 0  650000 1150000 0  700000 1150000 0  750000 1150000 0  800000 1150000 0  850000 1150000 0  900000 1150000 0  950000 1150000 0  1000000 1150000 0  0 1200000 0  50000 1200000 0  100000 1200000 0  150000 1200000 0  200000 1200000 0  250000 1200000 0  300000 1200000 0  350000 1200000 0  400000 1200000 0  450000 1200000 0  500000 1200000 0  550000 1200000 0  600000 1200000 0  650000 1200000 0  700000 1200000 0  750000 1200000 0  800000 1200000 0  850000 1200000 0  900000 1200000 0  950000 1200000 0  1000000 1200000 0  0 1250000 0  50000 1250000 0  100000 1250000 0  150000 1250000 0  200000 1250000 0  250000 1250000 0  300000 1250000 0  350000 1250000 0  400000 1250000 0  450000 1250000 0  500000 1250000 0  550000 1250000 0  600000 1250000 0  650000 1250000 0  700000 1250000 0  750000 1250000 0  800000 1250000 0  850000 1250000 0  900000 1250000 0  950000 1250000 0  1000000 1250000 0  0 1300000 0  50000 1300000 0  100000 1300000 0  150000 1300000 0  200000 1300000 0  250000 1300000 0  300000 1300000 0  350000 1300000 0  400000 1300000 0  450000 1300000 0  500000 1300000 0  550000 1300000 0  600000 1300000 0  650000 1300000 0  700000 1300000 0  750000 1300000 0  800000 1300000 0  850000 1300000 0  900000 1300000 0  950000 1300000 0  1000000 1300000 0  0 1350000 0  50000 1350000 0  100000 1350000 0  150000 1350000 0  200000 1350000 0  250000 1350000 0  300000 1350000 0  350000 1350000 0  400000 1350000 0  450000 1350000 0  500000 1350000 0  550000 1350000 0  600000 1350000 0  650000 1350000 0  700000 135
[...]
<PointData  Scalars="f_1511"> 
<DataArray  type="Float64"  Name="f_1511"  format="ascii">-8.0334665683266859e+00  -8.0329994364067865e+00  -8.0306930009265756e+00  -8.0265401601024671e+00  -8.0206485773954981e+00  -8.0131750075735102e+00  -8.0043180194151891e+00  -7.9943123316319227e+00  -7.9834225127611465e+00  -7.9719359242670729e+00  -7.9601550836666934e+00  -7.9483896544684294e+00  -7.9369482714881672e+00  -7.9261304124098331e+00  -7.9162185344626650e+00  -7.9074707252136465e+00  -7.9001142308888834e+00  -7.8943405840530865e+00  -7.8903034815418174e+00  -7.8881112541914700e+00  -7.8876385900272101e+00  -8.0339130882920813e+00  -8.0334562164282968e+00  -8.0311165278792931e+00  -8.0269360341207960e+00  -8.0210137179933927e+00  -8.0135034002478491e+00  -8.0046029342787453e+00  -7.9945474043855178e+00  -7.9836022953758015e+00  -7.9720561933257770e+00  -7.9602130234279116e+00  -7.9483839585663976e+00  -7.9368791787200399e+00  -7.9259996776786332e+00  -7.9160293203453449e+00  -7.9072273555565262e+00  -7.8998215624059318e+00  -7.8940019910940773e+00  -7.8899140737444853e+00  -7.8876444622592192e+00  -7.8871717993943395e+00  -8.0360821866899084e+00  -8.0356570929599034e+00  -8.0332634586770659e+00  -8.0289566439056124e+00  -8.0228552338912404e+00  -8.0151209039168094e+00  -8.0059574723185563e+00  -7.9956063469003409e+00  -7.9843401783866508e+00  -7.9724554790653208e+00  -7.9602646288585106e+00  -7.9480875264666144e+00  -7.9362430925513916e+00  -7.9250408254044791e+00  -7.9147726153372071e+00  -7.9057050375127798e+00  -7.8980723642219264e+00  -7.8920705402686639e+00  -7.8878521244668587e+00  -7.8855199545892498e+00  -7.8850965310631480e+00  -8.0399464830581753e+00  -8.0395260434782330e+00  -8.0370425078750873e+00  -8.0325307912991200e+00  -8.0261215874271592e+00  -8.0179914832391610e+00  -8.0083578684796652e+00  -7.9974757035020181e+00  -7.9856318876909427e+00  -7.9731380074437830e+00  -7.9603221674308307e+00  -7.9475203329488835e+00  -7.9350674776354317e+00  -7.9232887826322971e+00  -7.9124911318307998e+00  -7.9029551811299372e+00  -7.8949283469091398e+00  -7.8886190946717765e+00  -7.8841923325594063e+00  -7.8817608647053046e+00  -7.8813370736281776e+00  -8.0454454774429873e+00  -8.0450128825654783e+00  -8.0423878118911674e+00  -8.0375874430244227e+00  -8.0307475696794093e+00  -8.0220599839204656e+00  -8.0117604359240602e+00  -8.0001236994310947e+00  -7.9874577098618715e+00  -7.9740961638148864e+00  -7.9603900629594140e+00  -7.9466986622018769e+00  -7.9333801700166564e+00  -7.9207824907503781e+00  -7.9092342901774089e+00  -7.8990366930902631e+00  -7.8904559516291641e+00  -7.8837172749326818e+00  -7.8789987794168894e+00  -7.8764179749348360e+00  -7.8759703561208116e+00  -8.0525445530132860e+00  -8.0520872037035680e+00  -8.0492669146784213e+00  -8.0440890575717585e+00  -8.0366945734740813e+00  -8.0272909289466821e+00  -8.0161354249755608e+00  -8.0035277581349753e+00  -7.9898030286282706e+00  -7.9753236905806757e+00  -7.9604705456769613e+00  -7.9456331328761891e+00  -7.9311998495079106e+00  -7.9175481024799250e+00  -7.9050347777094592e+00  -7.8939873225730599e+00  -7.8846957004472351e+00  -7.8774051554724025e+00  -7.8723081301476867e+00  -7.8695265898696753e+00  -7.8690423841095090e+00  -8.0612330992108312e+00  -8.0607402767585317e+00  -8.0576715659166105e+00  -8.0520250620800127e+00  -8.0439496521148328e+00  -8.0336707250685269e+00  -8.0214704323956489e+00  -8.0076780452756147e+00  -7.9926614829218199e+00  -7.9768182255429156e+00  -7.9605654732507505e+00  -7.9443297774258781e+00  -7.9285364233405575e+00  -7.9135988338968053e+00  -7.8999082572056460e+00  -7.8878239921969611e+00  -7.8776643287306563e+00  -7.8696979750993279e+00  -7.8641340154968589e+00  -7.8611010514020006e+00  -7.8605706612273369e+00  -8.0715195851725312e+00  -8.0709813625853855e+00  -8.0676114856207253e+00  -8.0614037247810657e+00  -8.0525185339819707e+00  -8.0412027016194330e+00  -8.0277671722589883e+00  -8.0125755435097172e+00  -7.9960340540109556e+00  -7.9785812414695538e+00  -7.9606770480319060e+00  -7.9427915147701666e+00  -7.9253932766326356e+00  -7.9089380731132826e+00  -7.8938574883883001e+00  -7.8805481258945118e+00  -7.8693613383330741e+00  -7.8605932146017121e+00  -7.8544727270453008e+00  -7.8511380985804271e+00  -7.8505528608704989e+00  -8.0834260898255668e+00  -8.0828327966047606e+00  -8.0791088467909074e+00  -8.0722456366889386e+00  -8.0624189941268529e+00  -8.0499013039091594e+00  -8.0350368837909603e+00  -8.0182287404027992e+00  -7.9999269979888927e+00  -7.9806171805899666e+00  -7.9608081228224830e+00  -7.9410196054043771e+00  -7.9217698593507695e+00  -7.9035630810954549e+00  -7.8868771045031094e+00  -7.8721513813981616e+00  -7.8597753601200111e+00  -7.8500769473525089e+00  -7.8433088581617216e+00  -7.8396221443998781e+00  -7.8389736572950497e+00  -8.0969824422991561e+00  -8.0963243660598359e+00  -8.0921926438471061e+00  -8.0845777534998486e+00  -8.0736747955063723e+00  -8.0597864462851252e+00  -8.0432955304607230e+00  -8.0246499352437475e+00  -8.0043493970206612e+00  -7.9829323148566997e+00  -7.9609623887554344e+00  -7.9390151474753692e+00  -7.9176644333511144e+00  -7.8974688896524725e+00  -7.8789585041961905e+00  -7.8626212953551304e+00  -7.8488902068001698e+00  -7.8381299023098396e+00  -7.8306211587037549e+00  -7.8265311893888603e+00  -7.8258110608541838e+00  -8.1122197532526332e+00  -8.1114869490912191e+00  -8.1068924632288830e+00  -8.0984271680712485e+00  -8.0863095493383046e+00  -8.0708777532821596e+00  -8.0525587789989341e+00  -8.0318512647709035e+00  -8.0093104564285476e+00  -7.9855334539945684e+00  -7.9611445541298629e+00  -7.9367807100483558e+00  -7.9130770703253690e+00  -7.8906525041286129e+00  -7.8700950331767663e+00  -7.8519471620431425e+00  -7.8366911403619568e+00  -7.8247338593115190e+00  -7.8163889595295633e+00  -7.8118433730156758e+00  -7.8110431038255221e+00  -8.1291630427561845e+00  -8.1283451979312424e+00  -8.1232313026386347e+00  -8.1138140633958074e+00  -8.1003398947833478e+00  -8.0831882021162027e+00  -8.0628364279808196e+00  -8.0398402487073177e+00  -8.0148164464923752e+00  -7.9884264777653620e+00  -7.9613605595432118e+00  -7.9343222159790843e+00  -7.9080130831265638e+00  -7.8831176721855885e+00  -7.8602878100291100e+00  -7.8401266006105255e+00  -7.8231718794365381e+00  -7.8098788719626846e+00  -7.8005995123770910e+00  -7.7955444293799596e+00  -7.7946553527773741e+00  -8.1478226300104648e+00  -8.1469089581892877e+00  -8.1412170917392714e+00  -8.1307433938649858e+00  -8.1157674805020168e+00  -8.0967166657949541e+00  -8.0741258654693073e+00  -8.0486145419994415e+00  -8.0208670895030707e+00  -7.9916146060392146e+00  -7.9616178540315801e+00  -7.9316512075296721e+00  -7.9024871278536448e+00  -7.8748805533606401e+00  -7.8495526153182027e+00  -7.8271732887427543e+00  -7.8083428366967027e+00  -7.7935717592202005e+00  -7.7832566048588196e+00  -7.7776363806206632e+00  -7.7766496284862079e+00  -8.1681839089821899e+00  -8.1671630560553794e+00  -8.1608325226110221e+00  -8.1491948385717947e+00  -8.1325692360880062e+00  -8.1114388371404775e+00  -8.0864040849642187e+00  -8.0581555162153986e+00  -8.0274511352783815e+00  -7.9950962850000717e+00  -7.9619257507293204e+00  -7.9287876510625992e+00  -7.8965282610268872e+00  -7.8659766831241305e+00  -7.8379283178666093e+00  -7.8131263761736296e+00  -7.7922410913757920e+00  -7.7758463218630034e+00  -7.7643908493437506e+00  -7.7581478441114564e+00  -7.7570543188231982e+00  -8.1901950872548284e+00  -8.1890550294666280e+00  -8.1820227334777780e+00  -8.1691105106388235e+00  -8.1506853651341498e+00  -8.1272959545931265e+00  -8.0996177254490576e+00  -8.0684202322930521e+00  -8.0345408211520475e+00  -7.9988625414464831e+00  -7.9622958792230456e+00  -7.9257634616902166e+00  -7.8901862841272781e+00  -7.8564696902493276e+00  -7.8254873848414883e+00  -7.7980621623497282e+00  -7.7749426665813655e+00  -7.7567758009696997e+00  -7.7440721037183913e+00  -7.7371463783304009e+00  -7.7359367072075234e+00  -8.2137524096468333e+00  -8.2124803167061859e+00  -8.2046803062410625e+00  -8.1903798077995624e+00  -8.1700043875716784e+00  -8.1441806515284849e+00  -8.1136705158546114e+00  -8.0793313007741396e+00  -8.0420848682025774e+00  -8.0028936348078137e+00  -7.9627427512738338e+00  -7.9226269513880361e+00  -7.8835397556740165e+00  -7.8464623000075306e+00  -7.8123491179333673e+00  -7.7821087310712516e+00  -7.7565777903991098e+00  -7.7364881944208790e+00  -7.7224245629626065e+00  -7.7147533542737570e+00  -7.7134177945113747e+00  -8.2386823172567958e+00  -8.2372643368003597e+00  -8.2286269275908790e+00  -8.2128206487724196e+00  -8.1903444095914999e+00  -8.1619191183824817e+00  -8.1284074056768407e+00  -8.0907640640936176e+00  -8.0499996331696835e+00  -8.0071548222959628e+00  -7.9632844538675904e+00  -7.9194484151115780e+00  -7.8767060859127955e+00  -7.8361102263845188e+00  -7.7986963696271783e+00  -7.7654643798163017e+00  -7.7373499768353788e+00  -7.7151851907985707e+00  -7.6996451727841748e+00  -7.6911619227397896e+00  -7.6896901688101149e+00  -8.2647198937616277e+00  -8.2631407846220295e+00  -8.2535909039360895e+00  -8.2361561392098643e+00  -8.2114295989670296e+00  -8.1802486121075795e+00  -8.1435945773100755e+00  -8.1025305103035254e+00  -8.0581580427723409e+00  -8.0115910608095806e+00  -7.9639434746710558e+00  -7.9163270477531791e+00  -7.8698541195173988e+00  -7.8256395926374385e+00  -7.7847966003426237e+00  -7.7484208584876804e+00  -7.7175599793046521e+00  -7.6931656889571718e+00  -7.6760261818074742e+00  -7.6666587696211499e+00  -7.6650395897065211e+00  -8.2914827978386487e+00  -8.2897252888349193e+00  -8.2791794708428519e+00  -8.2599854130537658e+00  -8.2328605803547106e+00  -8.1987891950860945e+00  -8.1588945166540885e+00  -8.1143594050825971e+00  -8.0663760402694500e+00  -8.0161205290134081e+00  -7.9647476435974385e+00  -7.9133992900998145e+00  -7.8632194947686251e+00  -7.8153684551087954e+00  -7.7710281914407524e+00  -7.7313926278286260e+00  -7.6976359671930439e+00  -7.6708551883182210e+00  -7.6519829099966863e+00  -7.6416505454780213e+00  -7.6398711334922798e+00  -8.3184396211172960e+00  -8.3164832805026414e+00  -8.3048444166535464e+00  -8.2837469319013177e+00  -8.2540771268440221e+00  -8.2170084946512958e+00  -8.1738354781231646e+00  -8.1258724347731697e+00  -8.0743965752967117e+00  -8.0206270165194962e+00  -7.9657311300599076e+00  -7.9108484636539149e+00  -7.8571227290010714e+00  -7.8057327128739598e+00  -7.7579128301858020e+00  -7.7149535224741772e+00  -7.6781716870016474e+00  -7.6488428385826879e+00  -7.6280882523237628e+00  -7.6166961892166825e+00  -7.6147410545733152e+00  -8.3448711419453847e+00  -8.3426903681332849e+00  -8.3298387851850517e+00  -8.3066717763541398e+00  -8.2743111137232290e+00  -8.2341783825089063e+00  -8.1877752369826311e+00  -8.1365569125192092e+00  -8.0818718390844957e+00  -8.0249515790451884e+00  -7.9669353529800704e+00  -7.9089150576123624e+00  -7.8519892241537601e+00  -7.7973159315855050e+00  -7.7461543260770878e+00  -7.6998822552945834e+00  -7.6599749314921564e+00  -7.6279287727962881e+00  -7.6051162245347124e+00  -7.5925469715150857e+00  -7.5903960805521367e+00  -8.3698220638981180e+00  -8.3673824493157412e+00  -8.3531610063269550e+00  -8.3277232290943513e+00  -8.2925272896941848e+00  -8.2493230936794060e+00  -8.1998603903402891e+00  -8.1457371904739020e+00  -8.0883457516119286e+00  -8.0288845222118184e+00  -7.9684095191904731e+00  -7.9079061093114138e+00  -7.8483689041176321e+00  -7.7908809845858151e+00  -7.7366829977951523e+00  -7.6872178754995533e+00  -7.6441293684500780e+00  -7.6091857751719498e+00  -7.5840983270662736e+00  -7.5701972292417050e+00  -7.5678229192205162e+00  -8.3920391330308188e+00  -8.3892906417698914e+00  -8.3734800561025171e+00  -8.3455169389012980e+00  -8.3073493125096523e+00  -8.2611601338900016e+00  -8.2089854007820477e+00  -8.1525499251382971e+00  -8.0932409944035513e+00  -8.0321599010318110e+00  -7.9702102869657807e+00  -7.9082005713032792e+00  -7.8469505549345753e+00  -7.7873982444789878e+00  -7.7307019990212851e+00  -7.6783249827393192e+00  -7.6320735592433699e+00  -7.5940418065940172e+00  -7.5663993474426725e+00  -7.5509510057026663e+00  -7.5483128232424663e+00  -8.4098882101427090e+00  -8.4067515665594001e+00  -8.3890297934995210e+00  -8.3582129142201680e+00  -8.3169696905871273e+00  -8.2680398713038148e+00  -8.2137613539970555e+00  -8.1559335253461018e+00  -8.0958584865376420e+00  -8.0344564136331051e+00  -7.9723997604325767e+00  -7.9102452482819308e+00  -7.8485616723170413e+00  -7.7880593424468518e+00  -7.7297261412910609e+00  -7.6749647439251207e+00  -7.6257012171980021e+00  -7.5843941376522848e+00  -7.5538249330581078e+00  -7.5365143866873705e+00  -7.5335502376490258e+00  -8.4212362620202033e+00  -8.4175732137944586e+00  -8.3974497190338884e+00  -8.3633670489754177e+00  -8.3190477151497664e+00  -8.2679000815288735e+00  -8.2125149467383274e+00  -8.1546501434780581e+00  -8.0954021046619520e+00  -8.0354107029413537e+00  -7.9750407313073692e+00  -7.9145330157942597e+00  -7.8541385970261981e+00  -7.7942560788987274e+00  -7.7355922632987628e+00  -7.6793580798238175e+00  -7.6274841377091853e+00  -7.5827726366829289e+00  -7.5487851864413500e+00  -7.5291331950162519e+00  -7.5257434449130356e+00  -8.4232706979649041e+00  -8.4188113115787893e+00  -8.3955283174718343e+00  -8.3577301748335753e+00  -8.3106170875944247e+00  -8.2582737072122043e+00  -8.2033556322058470e+00  -8.1473690574071753e+00  -8.0910464852447372e+00  -8.0346509067058367e+00  -7.9781879825115798e+00  -7.9215526656472433e+00  -7.8646451282527927e+00  -7.8074905672798227e+00  -7.7503989807161764e+00  -7.6942037200431610e+00  -7.6406059144851337e+00  -7.5925784337910338e+00  -7.5545643886962335e+00  -7.5318188654229985e+00  -7.5278355068777874e+00  -8.4121982131811972e+00  -8.4063437632955011e+00  -8.3787702559826158e+00  -8.3370055369690643e+00  -8.2880738162971284e+00  -8.2364302245055416e+00  -8.1843728222012775e+00  -8.1328493367463928e+00  -8.0820671283800856e+00  -8.0318577588142990e+00  -7.9818747516252060e+00  -7.9317004038710088e+00  -7.8809149845656954e+00  -7.8291687730826203e+00  -7.7762998113572053e+00  -7.7225599246456209e+00  -7.6690449063363006e+00  -7.6184219499632571e+00  -7.5758044258345487e+00  -7.5487663061658825e+00  -7.5438861161569379e+00  -8.3826716070476408e+00  -8.3739455634165729e+00  -8.3406859042752846e+00  -8.2956856369077148e+00  -8.2474323539359755e+00  -8.1997974183860780e+00  -8.1540446406392615e+00  -8.1102550549273822e+00  -8.0680412656326581e+00  -8.0268533582315644e+00  -7.9860935796414347e+00  -7.9451503364265017e+00  -7.9034033817255258e+00  -7.8602291970366363e+00  -7.8150371316273031e+00  -7.7673957418257213e+00  -7.7173872144522235e+00  -7.6664924437495365e+00  -7.6194219623972810e+00  -7.5862549666704391e+00  -7.5798714054038143e+00  -8.3263572221230593e+00  -8.3111135233277214e+00  -8.2718920731566641e+00  -8.2274626434980309e+00  -8.1852617796363791e+00  -8.1468679050571691e+00  -8.1119137660772704e+00  -8.0795900308445088e+00  -8.0490895938172233e+00  -8.0196955712165430e+00  -7.9907662749472586e+00  -7.9616949321786112e+00  -7.9318640684507509e+00  -7.9005977346896774e+00  -7.8671140336570788e+00  -7.8304965146076153e+00  -7.7897678650987316e+00  -7.7443783758407996e+00  -7.6961690104129499e+00  -7.6550192299029911e+00  -7.6456872674818754e+00  -8.2264487921383189e+00  -8.1981928691840462e+00  -8.1604162230334794e+00  -8.1276386418879234e+00  -8.1009285214192452e+00  -8.0786741154120580e+00  -8.0594055808758451e+00  -8.0420948409819637e+00  -8.0260315634350476e+00  -8.0106944701991765e+00  -7.9956637137494058e+00  -7.9805610429763130e+00  -7.9650018090746473e+00  -7.9485452639700087e+00  -7.9306282407056585e+00  -7.9104601190874728e+00  -7.8868461454083612e+00  -7.8579336730314431e+00  -7.8212535985958294e+00  -7.7774057033155213e+00  -7.7617775504125239e+00  -8.0000000000000000e+00  -8.0000000000000000e+00  -8.0000000000000000e+00  -8.0000000000000000e+00  -8.0000000000000000e+00  -8.0000000000000000e+00  -8.0000000000000000e+00  -8.0000000000000000e+00  -8.0000000000000000e+00  -8.0000000000000000e+00  -8.0000000000000000e+00  -8.0000000000000000e+00  -8.0000000000000000e+00  -8.0000000000000000e+00  -8.0000000000000000e+00  -8.0000000000000000e+00  -8.0000000000000000e+00  -8.0000000000000000e+00  -8.0000000000000000e+00  -8.0000000000000000e+00  -8.0000000000000000e+00  </DataArray> 
</PointData> 
</Piece>
</UnstructuredGrid>
</VTKFile>