<?xml version="1.0"?>
<VTKFile type="UnstructuredGrid"  version="0.1"  >
<UnstructuredGrid>
<Piece  NumberOfPoints="651" NumberOfCells="1200">
<Points>
<DataArray  type="Float64"  NumberOfComponents="3"  format="ascii">0 0 0  50000 0 0  100000 0 0  150000 0 0  200000 0 0  250000 0 0  300000 0 0  350000 0 0  400000 0 0  450000 0 0  500000 0 0  550000 0 0  600000 0 0  650000 0 0  700000 0 0  750000 0 0  800000 0 0  850000 0 0  900000 0 0  950000 0 0  1000000 0 0  0 50000 0  50000 50000 0  100000 50000 0  150000 50000 0  200000 50000 0  250000 50000 0  300000 50000 0  350000 50000 0  400000 50000 0  450000 50000 0  500000 50000 0  550000 50000 0  600000 50000 0  650000 50000 0  700000 50000 0  750000 50000 0  800000 50000 0  850000 50000 0  900000 50000 0  950000 50000 0  1000000 50000 0  0 100000 0  50000 100000 0  100000 100000 0  150000 100000 0  200000 100000 0  250000 100000 0  300000 100000 0  350000 100000 0  400000 100000 0  450000 100000 0  500000 100000 0  550000 100000 0  600000 100000 0  650000 100000 0  700000 100000 0  750000 100000 0  800000 100000 0  850000 100000 0  900000 100000 0  950000 100000 0  1000000 100000 0  0 150000 0  50000 150000 0  100000 150000 0  150000 150000 0  200000 150000 0  250000 150000 0  300000 150000 0  350000 150000 0  400000 150000 0  450000 150000 0  500000 150000 0  550000 150000 0  600000 150000 0  650000 150000 0  700000 150000 0  750000 150000 0  800000 150000 0  850000 150000 0  900000 150000 0  950000 150000 0  1000000 150000 0  0 200000 0  50000 200000 0  100000 200000 0  150000 200000 0  200000 200000 0  250000 200000 0  300000 200000 0  350000 200000 0  400000 200000 0  450000 200000 0  500000 200000 0  550000 200000 0  600000 200000 0  650000 200000 0  700000 200000 0  750000 200000 0  800000 200000 0  850000 200000 0  900000 200000 0  950000 200000 0  1000000 200000 0  0 250000 0  50000 250000 0  100000 250000 0  150000 250000 0  200000 250000 0  250000 250000 0  300000 250000 0  350000 250000 0  400000 250000 0  450000 250000 0  500000 250000 0  550000 250000 0  600000 250000 0  650000 250000 0  700000 250000 0  750000 250000 0  800000 250000 0  850000 250000 0  900000 250000 0  950000 250000 0  1000000 250000 0  0 300000 0  50000 300000 0  100000 300000 0  150000 300000 0  200000 300000 0  250000 300000 0  300000 300000 0  350000 300000 0  400000 300000 0  450000 300000 0  500000 300000 0  550000 300000 0  600000 300000 0  650000 300000 0  700000 300000 0  750000 300000 0  800000 300000 0  850000 300000 0  900000 300000 0  950000 300000 0  1000000 300000 0  0 350000 0  50000 350000 0  100000 350000 0  150000 350000 0  200000 350000 0  250000 350000 0  300000 350000 0  350000 350000 0  400000 350000 0  450000 350000 0  500000 350000 0  550000 350000 0  600000 350000 0  650000 350000 0  700000 350000 0  750000 350000 0  800000 350000 0  850000 350000 0  900000 350000 0  950000 350000 0  1000000 350000 0  0 400000 0  50000 400000 0  100000 400000 0  150000 400000 0  200000 400000 0  250000 400000 0  300000 400000 0  350000 400000 0  400000 400000 0  450000 400000 0  500000 400000 0  550000 400000 0  600000 400000 0  650000 400000 0  700000 400000 0  750000 400000 0  800000 400000 0  850000 400000 0  900000 400000 0  950000 400000 0  1000000 400000 0  0 450000 0  50000 450000 0  100000 450000 0  150000 450000 0  200000 450000 0  250000 450000 0  300000 450000 0  350000 450000 0  400000 450000 0  450000 450000 0  500000 450000 0  550000 450000 0  600000 450000 0  650000 450000 0  700000 450000 0  750000 450000 0  800000 450000 0  850000 450000 0  900000 450000 0  950000 450000 0  1000000 450000 0  0 500000 0  50000 500000 0  100000 500000 0  150000 500000 0  200000 500000 0  250000 500000 0  300000 500000 0  350000 500000 0  400000 500000 0  450000 500000 0  500000 500000 0  550000 500000 0  600000 500000 0  650000 500000 0  700000 500000 0  750000 500000 0  800000 500000 0  850000 500000 0  900000 500000 0  950000 500000 0  1000000 500000 0  0 550000 0  50000 550000 0  100000 550000 0  150000 550000 0  200000 550000 0  250000 550000 0  300000 550000 0  350000 550000 0  400000 550000 0  450000 550000 0  500000 550000 0  550000 550000 0  600000 550000 0  650000 550000 0  700000 550000 0  750000 550000 0  800000 550000 0  850000 550000 0  900000 550000 0  950000 550000 0  1000000 550000 0  0 600000 0  50000 600000 0  100000 600000 0  150000 600000 0  200000 600000 0  250000 600000 0  300000 600000 0  350000 600000 0  400000 600000 0  450000 600000 0  500000 600000 0  550000 600000 0  600000 600000 0  650000 600000 0  700000 600000 0  750000 600000 0  800000 600000 0  850000 600000 0  900000 600000 0  950000 600000 0  1000000 600000 0  0 650000 0  50000 650000 0  100000 650000 0  150000 650000 0  200000 650000 0  250000 650000 0  300000 650000 0  350000 650000 0  400000 650000 0  450000 650000 0  500000 650000 0  550000 650000 0  600000 650000 0  650000 650000 0  700000 650000 0  750000 650000 0  800000 650000 0  850000 650000 0  900000 650000 0  950000 650000 0  1000000 650000 0  0 700000 0  50000 700000 0  100000 700000 0  150000 700000 0  200000 700000 0  250000 700000 0  300000 700000 0  350000 700000 0  400000 700000 0  450000 700000 0  500000 700000 0  550000 700000 0  600000 700000 0  650000 700000 0  700000 700000 0  750000 700000 0  800000 700000 0  850000 700000 0  900000 700000 0  950000 700000 0  1000000 700000 0  0 750000 0  50000 750000 0  100000 750000 0  150000 750000 0  200000 750000 0  250000 750000 0  300000 750000 0  350000 750000 0  400000 750000 0  450000 750000 0  500000 750000 0  550000 750000 0  600000 750000 0  650000 750000 0  700000 750000 0  750000 750000 0  800000 750000 0  850000 750000 0  900000 750000 0  950000 750000 0  1000000 750000 0  0 800000 0  50000 800000 0  100000 800000 0  150000 800000 0  200000 800000 0  250000 800000 0  300000 800000 0  350000 800000 0  400000 800000 0  450000 800000 0  500000 800000 0  550000 800000 0  600000 800000 0  650000 800000 0  700000 800000 0  750000 800000 0  800000 800000 0  850000 800000 0  900000 800000 0  950000 800000 0  1000000 800000 0  0 850000 0  50000 850000 0  100000 850000 0  150000 850000 0  200000 850000 0  250000 850000 0  300000 850000 0  350000 850000 0  400000 850000 0  450000 850000 0  500000 850000 0  550000 850000 0  600000 850000 0  650000 850000 0  700000 850000 0  750000 850000 0  800000 850000 0  850000 850000 0  900000 850000 0  950000 850000 0  1000000 850000 0  0 900000 0  50000 900000 0  100000 900000 0  150000 900000 0  200000 900000 0  250000 900000 0  300000 900000 0  350000 900000 0  400000 900000 0  450000 900000 0  500000 900000 0  550000 900000 0  600000 900000 0  650000 900000 0  700000 900000 0  750000 900000 0  800000 900000 0  850000 900000 0  900000 900000 0  950000 900000 0  1000000 900000 0  0 950000 0  50000 950000 0  100000 950000 0  150000 950000 0  200000 950000 0  250000 950000 0  300000 950000 0  350000 950000 0  400000 950000 0  450000 950000 0  500000 950000 0  550000 950000 0  600000 950000 0  650000 950000 0  700000 950000 0  750000 950000 0  800000 950000 0  850000 950000 0  900000 950000 0  950000 950000 0  1000000 950000 0  0 1000000 0  50000 1000000 0  100000 1000000 0  150000 1000000 0  200000 1000000 0  250000 1000000 0  300000 1000000 0  350000 1000000 0  400000 1000000 0  450000 1000000 0  500000 1000000 0  550000 1000000 0  600000 1000000 0  650000 1000000 0  700000 1000000 0  750000 1000000 0  800000 1000000 0  850000 1000000 0  900000 1000000 0  950000 1000000 0  1000000 1000000 0  0 1050000 0  50000 1050000 0  100000 1050000 0  150000 1050000 0  200000 1050000 0  250000 1050000 0  300000 1050000 0  350000 1050000 0  400000 1050000 0  450000 1050000 0  500000 1050000 0  550000 1050000 0  600000 1050000 0  650000 1050000 0  700000 1050000 0  750000 1050000 0  800000 1050000 0  850000 1050000 0  900000 1050000 0  950000 1050000 0  1000000 1050000 0  0 1100000 0  50000 1100000 0  100000 1100000 0  150000 1100000 0  200000 1100000 0  250000 1100000 0  300000 1100000 0  350000 1100000 0  400000 1100000 0  450000 1100000 0  500000 1100000 0  550000 1100000 0  600000 1100000 0  650000 1100000 0  700000 1100000 0  750000 1100000 0  800000 1100000 0  850000 1100000 0  900000 1100000 0  950000 1100000 0  1000000 1100000 0  0 1150000 0  50000 1150000 0  100000 1150000 0  150000 1150000 0  200000 1150000 0  250000 1150000 0  300000 1150000 0  350000 1150000 0  400000 1150000 0  450000 1150000 0  500000 1150000 0  550000 1150000 0  600000 1150000 0  650000 1150000 0  700000 1150000 0  750000 1150000 0  800000 1150000 0  850000 1150000 0  900000 1150000 0  950000 1150000 0  1000000 1150000 0  0 1200000 0  50000 1200000 0  100000 1200000 0  150000 1200000 0  200000 1200000 0  250000 1200000 0  300000 1200000 0  350000 1200000 0  400000 1200000 0  450000 1200000 0  500000 1200000 0  550000 1200000 0  600000 1200000 0  650000 1200000 0  700000 1200000 0  750000 1200000 0  800000 1200000 0  850000 1200000 0  900000 1200000 0  950000 1200000 0  1000000 1200000 0  0 1250000 0  50000 1250000 0  100000 1250000 0  150000 1250000 0  200000 1250000 0  250000 1250000 0  300000 1250000 0  350000 1250000 0  400000 1250000 0  450000 1250000 0  500000 1250000 0  550000 1250000 0  600000 1250000 0  650000 1250000 0  700000 1250000 0  750000 1250000 0  800000 1250000 0  850000 1250000 0  900000 1250000 0  950000 1250000 0  1000000 1250000 0  0 1300000 0  50000 1300000 0  100000 1300000 0  150000 1300000 0  200000 1300000 0  250000 1300000 0  300000 1300000 0  350000 1300000 0  400000 1300000 0  450000 1300000 0  500000 1300000 0  550000 1300000 0  600000 1300000 0  650000 1300000 0  700000 1300000 0  750000 1300000 0  800000 1300000 0  850000 1300000 0  900000 1300000 0  950000 1300000 0  1000000 1300000 0  0 1350000 0  50000 1350000 0  100000 1350000 0  150000 1350000 0  200000 1350000 0  250000 1350000 0  300000 1350000 0  350000 1350000 0  400000 1350000 0  450000 1350000 0  500000 1350000 0  550000 1350000 0  600000 1350000 0  650000 1350000 0  700000 135
[...]
<PointData  Scalars="f_1511"> 
<DataArray  type="Float64"  Name="f_1511"  format="ascii">-8.0458153176410097e+00  -8.0451757303934919e+00  -8.0420115015886591e+00  -8.0363132595815703e+00  -8.0282292797338446e+00  -8.0179750335147748e+00  -8.0058231991209272e+00  -7.9920959060595100e+00  -7.9771561143292917e+00  -7.9613979588174342e+00  -7.9452363012231224e+00  -7.9290957725933922e+00  -7.9133995914832429e+00  -7.8985584457005933e+00  -7.8849597366398392e+00  -7.8729575269995715e+00  -7.8628636912606389e+00  -7.8549412653222781e+00  -7.8494015914108459e+00  -7.8463940155137273e+00  -7.8457457356616267e+00  -8.0464223698959412e+00  -8.0457973026970659e+00  -8.0425876286231155e+00  -8.0368517553386614e+00  -8.0287260004080014e+00  -8.0184217864149741e+00  -8.0062107932025981e+00  -7.9924156396107957e+00  -7.9774005318428269e+00  -7.9615612738820198e+00  -7.9453146471615597e+00  -7.9290873415537000e+00  -7.9133046833518428e+00  -7.8983794283489068e+00  -7.8847008975234338e+00  -7.8726247354149779e+00  -7.8624635346125773e+00  -7.8544782709071779e+00  -7.8488688579235113e+00  -7.8457546497431032e+00  -7.8451064357154969e+00  -8.0493941437954284e+00  -8.0488134705912451e+00  -8.0455303327951313e+00  -8.0396214216457196e+00  -8.0312501435830441e+00  -8.0206387570490616e+00  -8.0080671453703385e+00  -7.9938666085040166e+00  -7.9784111846217334e+00  -7.9621075506852348e+00  -7.9453840849695805e+00  -7.9286794453518281e+00  -7.9124309462820923e+00  -7.8970630080349959e+00  -7.8829759598487765e+00  -7.8705354974434742e+00  -7.8600631252414850e+00  -7.8518279176453021e+00  -7.8460396004267965e+00  -7.8428398415728289e+00  -7.8422599117973313e+00  -8.0546925495127635e+00  -8.0541189094669221e+00  -8.0507131758661910e+00  -8.0445236022177511e+00  -8.0357302593012978e+00  -8.0245759623447466e+00  -8.0113592750129179e+00  -7.9964301257284420e+00  -7.9801821214590749e+00  -7.9630426323133623e+00  -7.9454616178813042e+00  -7.9278997841403305e+00  -7.9108164745129095e+00  -7.8946576317491655e+00  -7.8798441652357489e+00  -7.8667611044503758e+00  -7.8557480122812127e+00  -7.8470911805314172e+00  -7.8410173291777827e+00  -7.8376818128744734e+00  -7.8371017691838221e+00  -8.0622335528105449e+00  -8.0616438455518438e+00  -8.0580446754309296e+00  -8.0514596480230853e+00  -8.0420757701461980e+00  -8.0301567708096169e+00  -8.0160264676144113e+00  -8.0000620204547541e+00  -7.9826859294242176e+00  -7.9643559201520873e+00  -7.9455533800192502e+00  -7.9267709776563722e+00  -7.9084999431535365e+00  -7.8912174059354072e+00  -7.8753741753609603e+00  -7.8613833870135208e+00  -7.8496104785488532e+00  -7.8403647523804292e+00  -7.8338910743795740e+00  -7.8303511965354300e+00  -7.8297387909419260e+00  -8.0719687156421749e+00  -8.0713456642962225e+00  -8.0674793898217896e+00  -8.0603770880051790e+00  -8.0502327549741413e+00  -8.0373316398291639e+00  -8.0220271724627406e+00  -8.0047307497130831e+00  -7.9859021734544955e+00  -7.9660386452624135e+00  -7.9456624505574833e+00  -7.9253078154000054e+00  -7.9055073954882467e+00  -7.8867788063797679e+00  -7.8696115891679508e+00  -7.8544550147904300e+00  -7.8417070799298338e+00  -7.8317046013715759e+00  -7.8247121033824190e+00  -7.8208973799159933e+00  -7.8202351515844075e+00  -8.0838826169284363e+00  -8.0832115498554877e+00  -8.0790051909709160e+00  -8.0712606149554311e+00  -8.0601826697359922e+00  -8.0460811973901638e+00  -8.0293437496935489e+00  -8.0104223294787342e+00  -7.9898217884823808e+00  -7.9680873965165837e+00  -7.9457913819389434e+00  -7.9235187511269860e+00  -7.9018527679012189e+00  -7.8813604617362403e+00  -7.8625785236572208e+00  -7.8459999364865896e+00  -7.8320615775724010e+00  -7.8211324714573855e+00  -7.8134999711296516e+00  -7.8093409200766963e+00  -7.8086157772578053e+00  -8.0979860667712966e+00  -8.0972534135186311e+00  -8.0926346593300487e+00  -8.0841208541524647e+00  -8.0719326959200686e+00  -8.0564093933190222e+00  -8.0379780188028622e+00  -8.0171376862230073e+00  -7.9944458289681579e+00  -7.9705040455948621e+00  -7.9459431962006057e+00  -7.9214079395413233e+00  -7.8975409982889158e+00  -7.8749674456709382e+00  -7.8542793045957495e+00  -7.8360207376839170e+00  -7.8206739891910670e+00  -7.8086456568779408e+00  -7.8002503791307376e+00  -7.7956781675674582e+00  -7.7948783124204866e+00  -8.1143085795331711e+00  -8.1135011315803816e+00  -8.1083974867043569e+00  -8.0989853751832719e+00  -8.0855065946754241e+00  -8.0683354873858324e+00  -8.0479449245474637e+00  -8.0248880906797968e+00  -7.9997826203181770e+00  -7.9732945562023438e+00  -7.9461218088828662e+00  -7.9189772444535125e+00  -7.8925715946136545e+00  -7.8675963815785277e+00  -7.8447070554383194e+00  -7.8245065486747674e+00  -7.8075293650455269e+00  -7.7942257577509038e+00  -7.7849429449165868e+00  -7.7798885278264001e+00  -7.7790025283243658e+00  -8.1328903195927023e+00  -8.1319948186393134e+00  -8.1263327354774706e+00  -8.1158904952586202e+00  -8.1009363655318154e+00  -8.0818862723943194e+00  -8.0592659250119780e+00  -8.0336900722040863e+00  -8.0058443876133154e+00  -7.9764674155520030e+00  -7.9463322884303205e+00  -7.9162282991847057e+00  -7.8869424176193883e+00  -7.8592408101198616e+00  -7.8338504334523966e+00  -7.8114408172172434e+00  -7.7926061200339198e+00  -7.7778470220233871e+00  -7.7675492522230769e+00  -7.7619425903235548e+00  -7.7609590339727994e+00  -8.1537732193166335e+00  -8.1527760947142784e+00  -8.1464802867242323e+00  -8.1348727270135797e+00  -8.1182538109962774e+00  -8.0970881592591617e+00  -8.0719620897105173e+00  -8.0435599555879183e+00  -8.0126435403408731e+00  -7.9800318588468819e+00  -7.9465811024635915e+00  -7.9131647520203181e+00  -7.8806538020622217e+00  -7.8498969663372788e+00  -7.8217007520942285e+00  -7.7968093879568690e+00  -7.7758846452633019e+00  -7.7594851297654959e+00  -7.7480416729097064e+00  -7.7418111245626999e+00  -7.7407184574367189e+00  -8.1769908658834218e+00  -8.1758780487471832e+00  -8.1688709914006807e+00  -8.1559591124956299e+00  -8.1374811796917310e+00  -8.1139584533383129e+00  -8.0860464535746530e+00  -8.0545077476357445e+00  -8.0201884754181503e+00  -7.9839958554640322e+00  -7.9468764139254571e+00  -7.9097948514595862e+00  -7.8737132672093058e+00  -7.8395703255941660e+00  -7.8082599771298957e+00  -7.7806095150216654e+00  -7.7573569230450605e+00  -7.7391271022264752e+00  -7.7264034356547002e+00  -7.7194753081213685e+00  -7.7182617520070282e+00  -8.2025566985244200e+00  -8.2013134770110785e+00  -8.1935150488853452e+00  -8.1791558221281697e+00  -8.1586201763597064e+00  -8.1324951333090159e+00  -8.1015150488529759e+00  -8.0665299436020099e+00  -8.0284786249952376e+00  -7.9883637386138995e+00  -7.9472284613316804e+00  -7.9061345542132360e+00  -7.8661411426205667e+00  -7.8282833780701093e+00  -7.7935501724857517e+00  -7.7628604647726576e+00  -7.7370378191058631e+00  -7.7167829416379288e+00  -7.7026404348043451e+00  -7.6949386435883209e+00  -7.6935921497018906e+00  -8.2304500015977187e+00  -8.2290608926431528e+00  -8.2203880767466533e+00  -8.2044343933568751e+00  -8.1816386363179294e+00  -8.1526644193100157e+00  -8.1183359688606416e+00  -8.0796007355166015e+00  -8.0374983968937173e+00  -7.9931333117541570e+00  -7.9476500486801580e+00  -7.9022113705088799e+00  -7.8579774993354032e+00  -7.8160851720404141e+00  -7.7776250460938439e+00  -7.7436164132327567e+00  -7.7149787449119716e+00  -7.6924996271439641e+00  -7.6767953255201267e+00  -7.6682410792931259e+00  -7.6667492899721097e+00  -8.2605991151539460e+00  -8.2590477263549751e+00  -8.2494142472128154e+00  -8.2317149025826826e+00  -8.2064540859752935e+00  -8.1743853367256509e+00  -8.1364357314095823e+00  -8.0936610223724426e+00  -8.0472095911284942e+00  -7.9982922289824572e+00  -7.9481571686802752e+00  -7.8980691947132105e+00  -7.8492908419581893e+00  -7.8030632548583805e+00  -7.7605843449903817e+00  -7.7229824389623571e+00  -7.6912844705686192e+00  -7.6663781749535884e+00  -7.6489645320190034e+00  -7.6394759152354972e+00  -7.6378261019642633e+00  -8.2928612086171558e+00  -8.2911300529665102e+00  -8.2804457524962682e+00  -8.2608452292046959e+00  -8.2329132690757678e+00  -8.1975103469507911e+00  -8.1556820933648080e+00  -8.1086045321995588e+00  -8.0575418156868803e+00  -8.0038134161747685e+00  -7.9487697822531072e+00  -7.8937744001028660e+00  -7.8401890824301823e+00  -7.7893587410545226e+00  -7.7425919793586218e+00  -7.7011345601483905e+00  -7.6661340178811699e+00  -7.6385946057701162e+00  -7.6193189062039401e+00  -7.6088101601987059e+00  -7.6069890941056677e+00  -8.3269978664228983e+00  -8.3250680704054254e+00  -8.3132377097502985e+00  -8.2915753783101067e+00  -8.2607665143324756e+00  -8.2218009356864474e+00  -8.1758623333478617e+00  -8.1242602822268513e+00  -8.0683803808174162e+00  -8.0096492803435524e+00  -7.9495127735087969e+00  -7.8894234915318115e+00  -7.8308333637439063e+00  -7.7751853333463181e+00  -7.7238989077343607e+00  -7.6783449626172029e+00  -7.6398067778158438e+00  -7.6094258585085912e+00  -7.5881289274706729e+00  -7.5765091200265280e+00  -7.5745028092774511e+00  -8.3626455994163660e+00  -8.3604964055456072e+00  -8.3474173983362761e+00  -8.3235255540153563e+00  -8.2896355460336721e+00  -8.2468968379311285e+00  -8.1966559021794492e+00  -8.1403705693419273e+00  -8.0795511613745283e+00  -8.0157244660524416e+00  -7.9504170871726263e+00  -7.8851525797743838e+00  -7.8214552882398225e+00  -7.7608531713819229e+00  -7.7048719613726142e+00  -7.6550138075107057e+00  -7.6127152929436708e+00  -7.5792819750704199e+00  -7.5557955604666862e+00  -7.5429661635589964e+00  -7.5407593574270200e+00  -8.3992801866879407e+00  -8.3968880823735041e+00  -8.3824463807934784e+00  -8.3561462679299918e+00  -8.3189729793036786e+00  -8.2722773708318513e+00  -8.2176003153336872e+00  -8.1565637897327949e+00  -8.0908020583492153e+00  -8.0219269997184792e+00  -7.9515210260038804e+00  -7.8811488113132295e+00  -7.8123779445052381e+00  -7.7467982943277285e+00  -7.6860298595415468e+00  -7.6317092746950461e+00  -7.5854465529667880e+00  -7.5487463144301703e+00  -7.5228882449089385e+00  -7.5087388782445084e+00  -7.5063141830817539e+00  -8.4361733976337057e+00  -8.4335105773658920e+00  -8.4175734830166018e+00  -8.3886681335824456e+00  -8.3480112793022432e+00  -8.2972132219759640e+00  -8.2380493811430195e+00  -8.1723218062016425e+00  -8.1017811035430451e+00  -8.0280978865373687e+00  -7.9528716250043239e+00  -7.8776635604620804e+00  -7.8040406624435343e+00  -7.7336181024026063e+00  -7.6680875314797436e+00  -7.6092177367838545e+00  -7.5588142138678833e+00  -7.5186262436308624e+00  -7.4901920955009729e+00  -7.4745932837970033e+00  -7.4719296483191799e+00  -8.4723400022631168e+00  -8.4693716320400352e+00  -8.4517755766205998e+00  -8.4200379736473394e+00  -8.3756984032139652e+00  -8.3207071903477168e+00  -8.2571236223178115e+00  -8.1869426223535093e+00  -8.1120121706320347e+00  -8.0340197065334156e+00  -7.9545259056258946e+00  -7.8750265098560810e+00  -7.7970263899161152e+00  -7.7221121687340499e+00  -7.6520092346480357e+00  -7.5886060289225874e+00  -7.5339249203411960e+00  -7.4900178966501416e+00  -7.4587674682561129e+00  -7.4415586012399659e+00  -7.4386287809233922e+00  -8.5064717719875027e+00  -8.5031510353126265e+00  -8.4836811691607732e+00  -8.4488361787586523e+00  -8.4006167839106691e+00  -8.3414232290986750e+00  -8.2736546240829867e+00  -8.1995013024000958e+00  -8.1208710422918777e+00  -8.0394056646639491e+00  -7.9565516184783895e+00  -7.8736584814471406e+00  -7.7920885533044046e+00  -7.7133255259845859e+00  -7.6390692870999688e+00  -7.5712973350036830e+00  -7.5122629080152894e+00  -7.4643905463855624e+00  -7.4300270604884329e+00  -7.4109966423486702e+00  -7.4077629895452421e+00  -8.5368528542380062e+00  -8.5331116514424679e+00  -8.5114680491832342e+00  -8.4731675073556616e+00  -8.4208821702667898e+00  -8.3576056480841103e+00  -8.2861290605163358e+00  -8.2088161898560177e+00  -8.1275677146304286e+00  -8.0438920884523117e+00  -7.9590267816189488e+00  -7.8740787581228213e+00  -7.7901706460893330e+00  -7.7085872094544170e+00  -7.6309154360617377e+00  -7.5591604164648523e+00  -7.4957981282140524e+00  -7.4436995191319761e+00  -7.4058396051191693e+00  -7.3846929547019826e+00  -7.3811003776955797e+00  -8.5612463652203541e+00  -8.5569767456152945e+00  -8.5327187703069090e+00  -8.4905133596022004e+00  -8.4340204824895242e+00  -8.3669965660211805e+00  -8.2926460643430229e+00  -8.2134345749333413e+00  -8.1311457536688430e+00  -8.0470396808751676e+00  -7.9620369207233894e+00  -7.8768994700475963e+00  -7.7924059434059307e+00  -7.7095290073811222e+00  -7.6296219262773644e+00  -7.5546067674357378e+00  -7.4871234409082117e+00  -7.4305423700758420e+00  -7.3886770391305481e+00  -7.3649831183772854e+00  -7.3609470090283615e+00  -8.5767329999887298e+00  -8.5717465645511624e+00  -8.5442028406963146e+00  -8.4975287171457019e+00  -8.4368283069683212e+00  -8.3667739131482790e+00  -8.2909160458971947e+00  -8.2116629550341980e+00  -8.1305162292402056e+00  -8.0483517569294332e+00  -7.9656685187089327e+00  -7.8827956848056129e+00  -7.8000764860348513e+00  -7.7180564426095195e+00  -7.6377035641882722e+00  -7.5606770242401886e+00  -7.4896228435267442e+00  -7.4283823536263753e+00  -7.3818383480992367e+00  -7.3549411012676158e+00  -7.3503256444623144e+00  -8.5794639505742154e+00  -8.5733924943399451e+00  -8.5415256383413869e+00  -8.4897673691223812e+00  -8.4252468027622331e+00  -8.3535624046760866e+00  -8.2783529025428688e+00  -8.2016813840955063e+00  -8.1245506421072040e+00  -8.0473201891295911e+00  -7.9699970409967271e+00  -7.8924365975592439e+00  -7.8145014465913318e+00  -7.7362255045185551e+00  -7.6580329962796272e+00  -7.5810655287631832e+00  -7.5076544800509861e+00  -7.4418751291933720e+00  -7.3898187022814117e+00  -7.3586882777302316e+00  -7.3532643743827757e+00  -8.5642491001808470e+00  -8.5562749232505073e+00  -8.5185363567196273e+00  -8.4613504672211111e+00  -8.3943457316614190e+00  -8.3236275859588158e+00  -8.2523443631239282e+00  -8.1817937717437044e+00  -8.1122591356711791e+00  -8.0435090432953622e+00  -7.9750682897102259e+00  -7.9063641531323068e+00  -7.8368211283732103e+00  -7.7659595690593095e+00  -7.6935570192892104e+00  -7.6199580404665799e+00  -7.5466641521263709e+00  -7.4773316695387271e+00  -7.4189712723331205e+00  -7.3819652044513964e+00  -7.3753191790262438e+00  -8.5237736428870949e+00  -8.5118775227569241e+00  -8.4663562651343582e+00  -8.4047442422663217e+00  -8.3386750594988346e+00  -8.2734539230815045e+00  -8.2108119791112042e+00  -8.1508595978392560e+00  -8.0930655166237884e+00  -8.0366760226622826e+00  -7.9808720063192560e+00  -7.9248154455519382e+00  -7.8676564176341213e+00  -7.8085403838420246e+00  -7.7466576329504697e+00  -7.6814163883624467e+00  -7.6129287267830055e+00  -7.5432245746902451e+00  -7.4787634661061801e+00  -7.4333649070815060e+00  -7.4246686025661379e+00  -8.4466409991927840e+00  -8.4258311689908911e+00  -8.3721498901526648e+00  -8.3113237738732693e+00  -8.2535478413325833e+00  -8.2009864754808550e+00  -8.1531365480248912e+00  -8.1088889917882998e+00  -8.0671379651115966e+00  -8.0269014193506028e+00  -7.9873004257428075e+00  -7.9475039048836766e+00  -7.9066660555467427e+00  -7.8638608243175803e+00  -7.8180167635106628e+00  -7.7678777255999663e+00  -7.7121038210659369e+00  -7.6499412991515134e+00  -7.5839154788442578e+00  -7.5275786270640790e+00  -7.5148557663803892e+00  -8.3098788064969202e+00  -8.2712497176294981e+00  -8.2195457194777273e+00  -8.1746746133851662e+00  -8.1381111133760733e+00  -8.1076497730205315e+00  -8.0812772080655702e+00  -8.0575850732363588e+00  -8.0356004707363606e+00  -8.0146095891257776e+00  -7.9940375931716625e+00  -7.9733666165299173e+00  -7.9520699903110357e+00  -7.9295441281150705e+00  -7.9050176187318497e+00  -7.8774072247267082e+00  -7.8450756512265123e+00  -7.8054838246694853e+00  -7.7552489453565885e+00  -7.6951999338386674e+00  -7.6738581370609120e+00  -8.0000000000000000e+00  -8.0000000000000000e+00  -8.0000000000000000e+00  -8.0000000000000000e+00  -8.0000000000000000e+00  -8.0000000000000000e+00  -8.0000000000000000e+00  -8.0000000000000000e+00  -8.0000000000000000e+00  -8.0000000000000000e+00  -8.0000000000000000e+00  -8.0000000000000000e+00  -8.0000000000000000e+00  -8.0000000000000000e+00  -8.0000000000000000e+00  -8.0000000000000000e+00  -8.0000000000000000e+00  -8.0000000000000000e+00  -8.0000000000000000e+00  -8.0000000000000000e+00  -8.0000000000000000e+00  </DataArray> 
</PointData> 
</Piece>
</UnstructuredGrid>
</VTKFile>