<?xml version="1.0"?>
<VTKFile type="UnstructuredGrid"  version="0.1"  >
<UnstructuredGrid>
<Piece  NumberOfPoints="651" NumberOfCells="1200">
<Points>
<DataArray  type="Float64"  NumberOfComponents="3"  format="ascii">0 0 0  50000 0 0  100000 0 0  150000 0 0  200000 0 0  250000 0 0  300000 0 0  350000 0 0  400000 0 0  450000 0 0  500000 0 0  550000 0 0  600000 0 0  650000 0 0  700000 0 0  750000 0 0  800000 0 0  850000 0 0  900000 0 0  950000 0 0  1000000 0 0  0 50000 0  50000 50000 0  100000 50000 0  150000 50000 0  200000 50000 0  250000 50000 0  300000 50000 0  350000 50000 0  400000 50000 0  450000 50000 0  500000 50000 0  550000 50000 0  600000 50000 0  650000 50000 0  700000 50000 0  750000 50000 0  800000 50000 0  850000 50000 0  900000 50000 0  950000 50000 0  1000000 50000 0  0 100000 0  50000 100000 0  100000 100000 0  150000 100000 0  200000 100000 0  250000 100000 0  300000 100000 0  350000 100000 0  400000 100000 0  450000 100000 0  500000 100000 0  550000 100000 0  600000 100000 0  650000 100000 0  700000 100000 0  750000 100000 0  800000 100000 0  850000 100000 0  900000 100000 0  950000 100000 0  1000000 100000 0  0 150000 0  50000 150000 0  100000 150000 0  150000 150000 0  200000 150000 0  250000 150000 0  300000 150000 0  350000 150000 0  400000 150000 0  450000 150000 0  500000 150000 0  550000 150000 0  600000 150000 0  650000 150000 0  700000 150000 0  750000 150000 0  800000 150000 0  850000 150000 0  900000 150000 0  950000 150000 0  1000000 150000 0  0 200000 0  50000 200000 0  100000 200000 0  150000 200000 0  200000 200000 0  250000 200000 0  300000 200000 0  350000 200000 0  400000 200000 0  450000 200000 0  500000 200000 0  550000 200000 0  600000 200000 0  650000 200000 0  700000 200000 0  750000 200000 0  800000 200000 0  850000 200000 0  900000 200000 0  950000 200000 0  1000000 200000 0  0 250000 0  50000 250000 0  100000 250000 0  150000 250000 0  200000 250000 0  250000 250000 0  300000 250000 0  350000 250000 0  400000 250000 0  450000 250000 0  500000 250000 0  550000 250000 0  600000 250000 0  650000 250000 0  700000 250000 0  750000 250000 0  800000 250000 0  850000 250000 0  900000 250000 0  950000 250000 0  1000000 250000 0  0 300000 0  50000 300000 0  100000 300000 0  150000 300000 0  200000 300000 0  250000 300000 0  300000 300000 0  350000 300000 0  400000 300000 0  450000 300000 0  500000 300000 0  550000 300000 0  600000 300000 0  650000 300000 0  700000 300000 0  750000 300000 0  800000 300000 0  850000 300000 0  900000 300000 0  950000 300000 0  1000000 300000 0  0 350000 0  50000 350000 0  100000 350000 0  150000 350000 0  200000 350000 0  250000 350000 0  300000 350000 0  350000 350000 0  400000 350000 0  450000 350000 0  500000 350000 0  550000 350000 0  600000 350000 0  650000 350000 0  700000 350000 0  750000 350000 0  800000 350000 0  850000 350000 0  900000 350000 0  950000 350000 0  1000000 350000 0  0 400000 0  50000 400000 0  100000 400000 0  150000 400000 0  200000 400000 0  250000 400000 0  300000 400000 0  350000 400000 0  400000 400000 0  450000 400000 0  500000 400000 0  550000 400000 0  600000 400000 0  650000 400000 0  700000 400000 0  750000 400000 0  800000 400000 0  850000 400000 0  900000 400000 0  950000 400000 0  1000000 400000 0  0 450000 0  50000 450000 0  100000 450000 0  150000 450000 0  200000 450000 0  250000 450000 0  300000 450000 0  350000 450000 0  400000 450000 0  450000 450000 0  500000 450000 0  550000 450000 0  600000 450000 0  650000 450000 0  700000 450000 0  750000 450000 0  800000 450000 0  850000 450000 0  900000 450000 0  950000 450000 0  1000000 450000 0  0 500000 0  50000 500000 0  100000 500000 0  150000 500000 0  200000 500000 0  250000 500000 0  300000 500000 0  350000 500000 0  400000 500000 0  450000 500000 0  500000 500000 0  550000 500000 0  600000 500000 0  650000 500000 0  700000 500000 0  750000 500000 0  800000 500000 0  850000 500000 0  900000 500000 0  950000 500000 0  1000000 500000 0  0 550000 0  50000 550000 0  100000 550000 0  150000 550000 0  200000 550000 0  250000 550000 0  300000 550000 0  350000 550000 0  400000 550000 0  450000 550000 0  500000 550000 0  550000 550000 0  600000 550000 0  650000 550000 0  700000 550000 0  750000 550000 0  800000 550000 0  850000 550000 0  900000 550000 0  950000 550000 0  1000000 550000 0  0 600000 0  50000 600000 0  100000 600000 0  150000 600000 0  200000 600000 0  250000 600000 0  300000 600000 0  350000 600000 0  400000 600000 0  450000 600000 0  500000 600000 0  550000 600000 0  600000 600000 0  650000 600000 0  700000 600000 0  750000 600000 0  800000 600000 0  850000 600000 0  900000 600000 0  950000 600000 0  1000000 600000 0  0 650000 0  50000 650000 0  100000 650000 0  150000 650000 0  200000 650000 0  250000 650000 0  300000 650000 0  350000 650000 0  400000 650000 0  450000 650000 0  500000 650000 0  550000 650000 0  600000 650000 0  650000 650000 0  700000 650000 0  750000 650000 0  800000 650000 0  850000 650000 0  900000 650000 0  950000 650000 0  1000000 650000 0  0 700000 0  50000 700000 0  100000 700000 0  150000 700000 0  200000 700000 0  250000 700000 0  300000 700000 0  350000 700000 0  400000 700000 0  450000 700000 0  500000 700000 0  550000 700000 0  600000 700000 0  650000 700000 0  700000 700000 0  750000 700000 0  800000 700000 0  850000 700000 0  900000 700000 0  950000 700000 0  1000000 700000 0  0 750000 0  50000 750000 0  100000 750000 0  150000 750000 0  200000 750000 0  250000 750000 0  300000 750000 0  350000 750000 0  400000 750000 0  450000 750000 0  500000 750000 0  550000 750000 0  600000 750000 0  650000 750000 0  700000 750000 0  750000 750000 0  800000 750000 0  850000 750000 0  900000 750000 0  950000 750000 0  1000000 750000 0  0 800000 0  50000 800000 0  100000 800000 0  150000 800000 0  200000 800000 0  250000 800000 0  300000 800000 0  350000 800000 0  400000 800000 0  450000 800000 0  500000 800000 0  550000 800000 0  600000 800000 0  650000 800000 0  700000 800000 0  750000 800000 0  800000 800000 0  850000 800000 0  900000 800000 0  950000 800000 0  1000000 800000 0  0 850000 0  50000 850000 0  100000 850000 0  150000 850000 0  200000 850000 0  250000 850000 0  300000 850000 0  350000 850000 0  400000 850000 0  450000 850000 0  500000 850000 0  550000 850000 0  600000 850000 0  650000 850000 0  700000 850000 0  750000 850000 0  800000 850000 0  850000 850000 0  900000 850000 0  950000 850000 0  1000000 850000 0  0 900000 0  50000 900000 0  100000 900000 0  150000 900000 0  200000 900000 0  250000 900000 0  300000 900000 0  350000 900000 0  400000 900000 0  450000 900000 0  500000 900000 0  550000 900000 0  600000 900000 0  650000 900000 0  700000 900000 0  750000 900000 0  800000 900000 0  850000 900000 0  900000 900000 0  950000 900000 0  1000000 900000 0  0 950000 0  50000 950000 0  100000 950000 0  150000 950000 0  200000 950000 0  250000 950000 0  300000 950000 0  350000 950000 0  400000 950000 0  450000 950000 0  500000 950000 0  550000 950000 0  600000 950000 0  650000 950000 0  700000 950000 0  750000 950000 0  800000 950000 0  850000 950000 0  900000 950000 0  950000 950000 0  1000000 950000 0  0 1000000 0  50000 1000000 0  100000 1000000 0  150000 1000000 0  200000 1000000 0  250000 1000000 0  300000 1000000 0  350000 1000000 0  400000 1000000 0  450000 1000000 0  500000 1000000 0  550000 1000000 0  600000 1000000 0  650000 1000000 0  700000 1000000 0  750000 1000000 0  800000 1000000 0  850000 1000000 0  900000 1000000 0  950000 1000000 0  1000000 1000000 0  0 1050000 0  50000 1050000 0  100000 1050000 0  150000 1050000 0  200000 1050000 0  250000 1050000 0  300000 1050000 0  350000 1050000 0  400000 1050000 0  450000 1050000 0  500000 1050000 0  550000 1050000 0  600000 1050000 0  650000 1050000 0  700000 1050000 0  750000 1050000 0  800000 1050000 0  850000 1050000 0  900000 1050000 0  950000 1050000 0  1000000 1050000 0  0 1100000 0  50000 1100000 0  100000 1100000 0  150000 1100000 0  200000 1100000 0  250000 1100000 0  300000 1100000 0  350000 1100000 0  400000 1100000 0  450000 1100000 0  500000 1100000 0  550000 1100000 0  600000 1100000 0  650000 1100000 0  700000 1100000 0  750000 1100000 0  800000 1100000 0  850000 1100000 0  900000 1100000 0  950000 1100000 0  1000000 1100000 0  0 1150000 0  50000 1150000 0  100000 1150000 0  150000 1150000 0  200000 1150000 0  250000 1150000 0  300000 1150000 0  350000 1150000 0  400000 1150000 0  450000 1150000 0  500000 1150000 0  550000 1150000 0  600000 1150000 0  650000 1150000 0  700000 1150000 0  750000 1150000 0  800000 1150000 0  850000 1150000 0  900000 1150000 0  950000 1150000 0  1000000 1150000 0  0 1200000 0  50000 1200000 0  100000 1200000 0  150000 1200000 0  200000 1200000 0  250000 1200000 0  300000 1200000 0  350000 1200000 0  400000 1200000 0  450000 1200000 0  500000 1200000 0  550000 1200000 0  600000 1200000 0  650000 1200000 0  700000 1200000 0  750000 1200000 0  800000 1200000 0  850000 1200000 0  900000 1200000 0  950000 1200000 0  1000000 1200000 0  0 1250000 0  50000 1250000 0  100000 1250000 0  150000 1250000 0  200000 1250000 0  250000 1250000 0  300000 1250000 0  350000 1250000 0  400000 1250000 0  450000 1250000 0  500000 1250000 0  550000 1250000 0  600000 1250000 0  650000 1250000 0  700000 1250000 0  750000 1250000 0  800000 1250000 0  850000 1250000 0  900000 1250000 0  950000 1250000 0  1000000 1250000 0  0 1300000 0  50000 1300000 0  100000 1300000 0  150000 1300000 0  200000 1300000 0  250000 1300000 0  300000 1300000 0  350000 1300000 0  400000 1300000 0  450000 1300000 0  500000 1300000 0  550000 1300000 0  600000 1300000 0  650000 1300000 0  700000 1300000 0  750000 1300000 0  800000 1300000 0  850000 1300000 0  900000 1300000 0  950000 1300000 0  1000000 1300000 0  0 1350000 0  50000 1350000 0  100000 1350000 0  150000 1350000 0  200000 1350000 0  250000 1350000 0  300000 1350000 0  350000 1350000 0  400000 1350000 0  450000 1350000 0  500000 1350000 0  550000 1350000 0  600000 1350000 0  650000 1350000 0  700000 135
[...]
<PointData  Scalars="f_1511"> 
<DataArray  type="Float64"  Name="f_1511"  format="ascii">-8.0469574911667703e+00  -8.0463031757335894e+00  -8.0430620382498557e+00  -8.0372243858553816e+00  -8.0289421940410364e+00  -8.0184362732324246e+00  -8.0059860369657105e+00  -7.9919215594520985e+00  -7.9766147440144159e+00  -7.9604694312621191e+00  -7.9439106955454868e+00  -7.9273736196528146e+00  -7.9112918396958021e+00  -7.8960861551515498e+00  -7.8821535103507845e+00  -7.8698566965545869e+00  -7.8595152863534414e+00  -7.8513988216960975e+00  -7.8457238920420274e+00  -7.8426435818947686e+00  -7.8419808147759049e+00  -8.0475810216909522e+00  -8.0469413073414611e+00  -8.0436533643134975e+00  -8.0377769979950404e+00  -8.0294518871640239e+00  -8.0188946782704544e+00  -8.0063837558984794e+00  -7.9922496922143793e+00  -7.9768656651179981e+00  -7.9606372237131335e+00  -7.9439914080048659e+00  -7.9273654091660486e+00  -7.9111950219544145e+00  -7.8959031638712336e+00  -7.8818887453135815e+00  -7.8695161776348641e+00  -7.8591057684974022e+00  -7.8509249476110794e+00  -7.8451785895461770e+00  -7.8419890337126743e+00  -7.8413263784899385e+00  -8.0506274856151787e+00  -8.0500330814167800e+00  -8.0466696787664986e+00  -8.0406158468727966e+00  -8.0320390269376958e+00  -8.0211669631294154e+00  -8.0082864410609034e+00  -7.9937369247658898e+00  -7.9779016642865113e+00  -7.9611973481984171e+00  -7.9440628980856474e+00  -7.9269477672652977e+00  -7.9103000334658411e+00  -7.8945545656532099e+00  -7.8801215534381406e+00  -7.8673757068870769e+00  -7.8566464651753076e+00  -7.8482095566871628e+00  -7.8422799114769681e+00  -7.8390027365178323e+00  -7.8384101121191474e+00  -8.0560577549364663e+00  -8.0554704370741099e+00  -8.0519812925785956e+00  -8.0456397506375037e+00  -8.0366303384842848e+00  -8.0252018689434923e+00  -8.0116602694874643e+00  -7.9963640914703369e+00  -7.9797166354364766e+00  -7.9621557925474482e+00  -7.9441425971408126e+00  -7.9261490937081023e+00  -7.9086459317064755e+00  -7.8920900330482047e+00  -7.8769126750108898e+00  -7.8635083786069666e+00  -7.8522250877909876e+00  -7.8433561746415155e+00  -7.8371339844741108e+00  -7.8337177470679844e+00  -7.8331250428786738e+00  -8.0637856642766650e+00  -8.0631817947205295e+00  -8.0594943579279441e+00  -8.0527475185181761e+00  -8.0431329144818395e+00  -8.0309207939096652e+00  -8.0164429647359228e+00  -8.0000858830997306e+00  -7.9822824557723981e+00  -7.9635016779770806e+00  -7.9442367865337440e+00  -7.9249925763840121e+00  -7.9062723696480122e+00  -7.8885650438620125e+00  -7.8723325138558771e+00  -7.8579981005879143e+00  -7.8459362621549840e+00  -7.8364639502883406e+00  -7.8298321042219996e+00  -7.8262065040681517e+00  -7.8255806667525487e+00  -8.0737615202430533e+00  -8.0731234206201457e+00  -8.0691622338162610e+00  -8.0618853008869014e+00  -8.0514914220261904e+00  -8.0382729000541246e+00  -8.0225918892990116e+00  -8.0048699296952499e+00  -7.9855781509464059e+00  -7.9652259980646205e+00  -7.9443486142528821e+00  -7.9234933762116873e+00  -7.9032060527185566e+00  -7.8840170055073164e+00  -7.8664278363048687e+00  -7.8508988930332650e+00  -7.8378379966524605e+00  -7.8275902926527046e+00  -7.8204268628838669e+00  -7.8165196733072664e+00  -7.8158428068351800e+00  -8.0859694637804651e+00  -8.0852821231449887e+00  -8.0809724297258274e+00  -8.0730373468522583e+00  -8.0616867941988009e+00  -8.0472382767844426e+00  -8.0300889153531170e+00  -8.0107018594503359e+00  -7.9895944007246191e+00  -7.9673252379492396e+00  -7.9444806883087127e+00  -7.9216601601113412e+00  -7.8994612771854582e+00  -7.8784650328002375e+00  -7.8592213407436056e+00  -7.8422353386178631e+00  -7.8279546870805232e+00  -7.8167575338150055e+00  -7.8089383514743256e+00  -7.8046783747174935e+00  -7.8039370616481527e+00  -8.1004205181028688e+00  -8.0996700527351333e+00  -8.0949377810732166e+00  -8.0862144881360116e+00  -8.0737263352940065e+00  -8.0578209207122402e+00  -8.0389358627087706e+00  -8.0175825851202731e+00  -7.9943322583524781e+00  -7.9698012984159199e+00  -7.9446360987365940e+00  -7.9194971891897072e+00  -7.8950431166994370e+00  -7.8719143477508862e+00  -7.8507174909526629e+00  -7.8320101247460814e+00  -7.8162863948816490e+00  -7.8039629485043953e+00  -7.7953622158290958e+00  -7.7906789218085892e+00  -7.7898610714102086e+00  -8.1171448752186262e+00  -8.1163177714190624e+00  -8.1110886612359572e+00  -8.1014449246681846e+00  -8.0876343450532122e+00  -8.0700405228774645e+00  -8.0491480063467353e+00  -8.0255236239489172e+00  -7.9998002311884235e+00  -7.9726602757461205e+00  -7.9448188524072325e+00  -7.9170063772843662e+00  -7.8899510801397668e+00  -7.8643615119109498e+00  -7.8409092697432552e+00  -7.8202121490679168e+00  -7.8028178424580776e+00  -7.7891877283394333e+00  -7.7796776197324622e+00  -7.7745002637323406e+00  -7.7735941608848238e+00  -8.1361836424137444e+00  -8.1352663347051859e+00  -8.1294650482758986e+00  -8.1187658234198707e+00  -8.1034435690797686e+00  -8.0839244977085194e+00  -8.0607472996194804e+00  -8.0345418853892614e+00  -8.0060108256068059e+00  -7.9759108542928345e+00  -7.9450341389990706e+00  -7.9141894027204023e+00  -7.8841829885048096e+00  -7.8557999275010193e+00  -7.8297850827132374e+00  -7.8068244856215001e+00  -7.7875269524560062e+00  -7.7724055309942512e+00  -7.7618554947881098e+00  -7.7561123159545975e+00  -7.7551062663660302e+00  -8.1575797410057032e+00  -8.1565583430217394e+00  -8.1501077615575852e+00  -8.1382145543078099e+00  -8.1211865541657993e+00  -8.0994998716512612e+00  -8.0737553010726497e+00  -8.0446540724060345e+00  -8.0129767396277316e+00  -7.9795624869814699e+00  -7.9452885834006164e+00  -7.9110500094196414e+00  -7.8777391982544565e+00  -7.8462257576406547e+00  -7.8173360570309676e+00  -7.7918326643016602e+00  -7.7703936724386002e+00  -7.7535914817003668e+00  -7.7418675803333823e+00  -7.7354851785408645e+00  -7.7343673438730844e+00  -8.1813675440413292e+00  -8.1802276579184294e+00  -8.1730483701678409e+00  -8.1598187857385671e+00  -8.1408860604369426e+00  -8.1167843440338157e+00  -8.0881853395503747e+00  -8.0558704170377684e+00  -8.0207065622865414e+00  -7.9836233317699623e+00  -7.9455905491708414e+00  -7.9075966559670778e+00  -7.8706274280678006e+00  -7.8356446338201806e+00  -7.8035642348324954e+00  -7.7752339057420512e+00  -7.7514098269324041e+00  -7.7327323265061496e+00  -7.7196967402210586e+00  -7.7125996162326356e+00  -7.7113579292664989e+00  -8.2075607832481001e+00  -8.2062873511916603e+00  -8.1982972856160838e+00  -8.1835848030971690e+00  -8.1625438009089937e+00  -8.1357758143502181e+00  -8.1040333253131731e+00  -8.0681873097360075e+00  -8.0291996995300359e+00  -7.9880978229741508e+00  -7.9459505281702985e+00  -7.9038457001246849e+00  -7.8628685230917572e+00  -7.8240796217113671e+00  -7.7884922514680692e+00  -7.7570479848634220e+00  -7.7305906873276795e+00  -7.7098383582659675e+00  -7.6953490620022480e+00  -7.6874592684062684e+00  -7.6860813856740382e+00  -8.2361381980551176e+00  -8.2347153708102994e+00  -8.2258294895141244e+00  -8.2094834094585796e+00  -8.1861267886883446e+00  -8.1564396450645322e+00  -8.1212665451690889e+00  -8.0815782917536705e+00  -8.0384401658452447e+00  -7.9929837066586380e+00  -7.9463816425697589e+00  -7.8998253386541233e+00  -7.8545035564242331e+00  -7.8115809988649128e+00  -7.7721751648966126e+00  -7.7373304449808593e+00  -7.7079889696024679e+00  -7.6849577561212632e+00  -7.6688682980569238e+00  -7.6601051164364016e+00  -7.6585783790222308e+00  -8.2670263342078574e+00  -8.2654373295142189e+00  -8.2555672564195692e+00  -8.2374326847898391e+00  -8.2115504942856958e+00  -8.1786928467935791e+00  -8.1398096914464606e+00  -8.0959827958134980e+00  -8.0483888148436673e+00  -7.9982683323517856e+00  -7.9469002834971532e+00  -7.8955805565671335e+00  -7.8456027345320729e+00  -7.7982384886794325e+00  -7.7547152039066658e+00  -7.7161889829164858e+00  -7.6837120594954840e+00  -7.6581940639330863e+00  -7.6403532908179130e+00  -7.6306328041058480e+00  -7.6289441741975423e+00  -8.3000788216273325e+00  -8.2983057344865081e+00  -8.2873591159591182e+00  -8.2672767418739141e+00  -8.2386578701586330e+00  -8.2023842344334703e+00  -8.1595272554417591e+00  -8.1112919281619984e+00  -8.0589735202891060e+00  -8.0039239621436575e+00  -7.9475269098505006e+00  -7.8911793714888194e+00  -7.8362766401787001e+00  -7.7841966979593220e+00  -7.7362803364401653e+00  -7.6938039771541105e+00  -7.6579434174981653e+00  -7.6297276713640567e+00  -7.6099791374225250e+00  -7.5992134933338376e+00  -7.5973494215944992e+00  -8.3350513620365376e+00  -8.3330748658750995e+00  -8.3209541432916669e+00  -8.2987594202204917e+00  -8.2671930906274707e+00  -8.2272694176168031e+00  -8.1802012782958347e+00  -8.1273304992676252e+00  -8.0700767740790198e+00  -8.0099018384682470e+00  -7.9482870269646266e+00  -7.8867206740867735e+00  -7.8266903950473283e+00  -7.7696746040946509e+00  -7.7171277155328415e+00  -7.6704543338404259e+00  -7.6309693359241608e+00  -7.5998423620461040e+00  -7.5780230063583200e+00  -7.5661190542655881e+00  -7.5640652108550723e+00  -8.3715715185512494e+00  -8.3693703559665433e+00  -8.3559704435526783e+00  -8.3314915779955534e+00  -8.2967685745454141e+00  -8.2529792723608377e+00  -8.2015033319844672e+00  -8.1438344756317935e+00  -8.0815201782576214e+00  -8.0161247635204731e+00  -7.9492123522788658e+00  -7.8823439347982776e+00  -7.8170813102702255e+00  -7.7549899880996627e+00  -7.6976332097117020e+00  -7.6465500733758400e+00  -7.6032125239051815e+00  -7.5689582860156142e+00  -7.5448957501810927e+00  -7.5317525593456685e+00  -7.5294933259384225e+00  -8.4091021852019434e+00  -8.4066522761029852e+00  -8.3918563462984004e+00  -8.3649102245104441e+00  -8.3268234894222939e+00  -8.2789803277139491e+00  -8.2229595772172601e+00  -8.1604231345104186e+00  -8.0930454532192684e+00  -8.0224780272694272e+00  -7.9503421449926854e+00  -7.8782409138650067e+00  -7.8077804284833654e+00  -7.7405896188226428e+00  -7.6783283002347105e+00  -7.6226733541972749e+00  -7.5752744136495842e+00  -7.5376731576930567e+00  -7.5111808244539340e+00  -7.4966853230094133e+00  -7.4942028872772006e+00  -8.4468972507871722e+00  -8.4441701178009527e+00  -8.4278422360026575e+00  -8.3982270866885287e+00  -8.3565714620217495e+00  -8.3045253746622123e+00  -8.2439079699519979e+00  -8.1765656332885293e+00  -8.1042920072363689e+00  -8.0287987504244054e+00  -7.9517246144372900e+00  -7.8746691767521799e+00  -7.7992378851391280e+00  -7.7270855827540075e+00  -7.6599454881531868e+00  -7.5996298749949887e+00  -7.5479886575118638e+00  -7.5068141869074694e+00  -7.4776826417723692e+00  -7.4617021961409549e+00  -7.4589750002267294e+00  -8.4839473139930011e+00  -8.4809072811618762e+00  -8.4628798868816357e+00  -8.4303631538939285e+00  -8.3849346463720522e+00  -8.3285927579738832e+00  -8.2634474708774839e+00  -8.1915427715432187e+00  -8.1147720543004667e+00  -8.0348642022776726e+00  -7.9534182054783784e+00  -7.8719665194175743e+00  -7.7920509551698478e+00  -7.7152970947212083e+00  -7.6434727126698565e+00  -7.5785126685587922e+00  -7.5224890733754854e+00  -7.4775044218436690e+00  -7.4454875944085348e+00  -7.4278576737058168e+00  -7.4248578170242414e+00  -8.5189120714232924e+00  -8.5155111907246361e+00  -8.4955641856221398e+00  -8.4598640161925829e+00  -8.4104607265942164e+00  -8.3498136846385798e+00  -8.2803810340774540e+00  -8.2044069568802200e+00  -8.1238460975052487e+00  -8.0403805840151144e+00  -7.9554923597118057e+00  -7.8705641129171084e+00  -7.7869915701380865e+00  -7.7062948431376777e+00  -7.6302155694005798e+00  -7.5607798450374117e+00  -7.5002963171276260e+00  -7.4512491849690434e+00  -7.4160430393130330e+00  -7.3965469800047341e+00  -7.3932359071282878e+00  -8.5500336245681989e+00  -8.5462021502675558e+00  -8.5240282749433032e+00  -8.4847879946116560e+00  -8.4312192848062182e+00  -8.3663894531320135e+00  -8.2931582680622249e+00  -8.2139476011149473e+00  -8.1307048035394889e+00  -8.0449753442800755e+00  -7.9580270422922386e+00  -7.8709940026428180e+00  -7.7850263838846345e+00  -7.7014404741060698e+00  -7.6218622282554671e+00  -7.5483460038524175e+00  -7.4834286533943892e+00  -7.4300517500871992e+00  -7.3912635279733525e+00  -7.3695994413412809e+00  -7.3659207301358212e+00  -8.5750203016609454e+00  -8.5706476721954825e+00  -8.5457955055511530e+00  -8.5025548041173717e+00  -8.4446756485420007e+00  -8.3760068928160312e+00  -8.2998317702334532e+00  -8.2186764439027957e+00  -8.1343683482276443e+00  -8.0481984646394906e+00  -7.9611099134699765e+00  -7.8738833536427304e+00  -7.7873164749475183e+00  -7.7024057954092369e+00  -7.6205377968070556e+00  -7.5436817650424937e+00  -7.4745425061648350e+00  -7.4165733398417979e+00  -7.3736815744149968e+00  -7.3494078699623220e+00  -7.3452748662174097e+00  -8.5908813240753990e+00  -8.5857745777142416e+00  -8.5575563011551203e+00  -8.5097375309956504e+00  -8.4475479821873289e+00  -8.3757748627117348e+00  -8.2980559304343817e+00  -8.2168585649271737e+00  -8.1337211879908065e+00  -8.0495411447108776e+00  -7.9648296152303724e+00  -7.8799238017464139e+00  -7.7951753167478453e+00  -7.7111430373394079e+00  -7.6288187203657412e+00  -7.5499022899573642e+00  -7.4771048056919085e+00  -7.4143620671752997e+00  -7.3666769769112568e+00  -7.3391215248234296e+00  -7.3343951251420245e+00  -8.5936736865768264e+00  -8.5874556810354381e+00  -8.5548084895074741e+00  -8.5017811474250085e+00  -8.4356781279525332e+00  -8.3622355171145326e+00  -8.2851814188928188e+00  -8.2066295484179577e+00  -8.1276072709861698e+00  -8.0484828744562744e+00  -7.9692634984580071e+00  -7.8898009477303779e+00  -7.8099543939862173e+00  -7.7297585471581023e+00  -7.6496480174777250e+00  -7.5707924363504135e+00  -7.4955804788417346e+00  -7.4281876449871396e+00  -7.3748549916079629e+00  -7.3429626887012587e+00  -7.3374082411253667e+00  -8.5780802927447919e+00  -8.5699134183239298e+00  -8.5312507707072260e+00  -8.4726629829418094e+00  -8.4040152844713436e+00  -8.3315631397581580e+00  -8.2585321799569673e+00  -8.1862519307133716e+00  -8.1150126222048424e+00  -8.0445771184889328e+00  -7.9744585125807612e+00  -7.9040699906078231e+00  -7.8328218866868546e+00  -7.7602227437314903e+00  -7.6860446069641695e+00  -7.6106404696046877e+00  -7.5355487371290621e+00  -7.4645156473567100e+00  -7.4047243656118438e+00  -7.3668124362356524e+00  -7.3600062248063605e+00  -8.5366074660496878e+00  -8.5244231621903612e+00  -8.4777872268623504e+00  -8.4146650660604916e+00  -8.3469762867404835e+00  -8.2801564449052609e+00  -8.2159791720999227e+00  -8.1545575058898354e+00  -8.0953471052193962e+00  -8.0375757305699356e+00  -7.9804041493791171e+00  -7.9229737555929969e+00  -7.8644137473106444e+00  -7.8038485845118313e+00  -7.7404486421001018e+00  -7.6736075687972303e+00  -7.6034401601714654e+00  -7.5320262572626433e+00  -7.4659843981551059e+00  -7.4194741223834173e+00  -7.4105678429458965e+00  -8.4575801818993774e+00  -8.4362643430989426e+00  -8.3812685440619230e+00  -8.3189518357830838e+00  -8.2597600098035855e+00  -8.2059107181363373e+00  -8.1568884804356028e+00  -8.1115569811213000e+00  -8.0687832209894239e+00  -8.0275610457801960e+00  -7.9869899596692591e+00  -7.9462184920132000e+00  -7.9043800848882499e+00  -7.8605259484492427e+00  -7.8135583126747896e+00  -7.7621901491620413e+00  -7.7050486079348222e+00  -7.6413613910511149e+00  -7.5737160356232653e+00  -7.5159987076548616e+00  -7.5029677847590222e+00  -8.3174655258597934e+00  -8.2778934224201723e+00  -8.2249233068496128e+00  -8.1789527983923538e+00  -8.1414935484985467e+00  -8.1102861378984787e+00  -8.0832677695952349e+00  -8.0589955286100583e+00  -8.0364726477185808e+00  -8.0149678125984725e+00  -7.9938920983655377e+00  -7.9727149465098348e+00  -7.9508967773474115e+00  -7.9278192011223343e+00  -7.9026918754839945e+00  -7.8744049616550456e+00  -7.8412809341361429e+00  -7.8007183177304604e+00  -7.7492512515861636e+00  -7.6877294939897487e+00  -7.6658683892715818e+00  -8.0000000000000000e+00  -8.0000000000000000e+00  -8.0000000000000000e+00  -8.0000000000000000e+00  -8.0000000000000000e+00  -8.0000000000000000e+00  -8.0000000000000000e+00  -8.0000000000000000e+00  -8.0000000000000000e+00  -8.0000000000000000e+00  -8.0000000000000000e+00  -8.0000000000000000e+00  -8.0000000000000000e+00  -8.0000000000000000e+00  -8.0000000000000000e+00  -8.0000000000000000e+00  -8.0000000000000000e+00  -8.0000000000000000e+00  -8.0000000000000000e+00  -8.0000000000000000e+00  -8.0000000000000000e+00  </DataArray> 
</PointData> 
</Piece>
</UnstructuredGrid>
</VTKFile>