<?xml version="1.0"?>
<VTKFile type="UnstructuredGrid"  version="0.1"  >
<UnstructuredGrid>
<Piece  NumberOfPoints="651" NumberOfCells="1200">
<Points>
<DataArray  type="Float64"  NumberOfComponents="3"  format="ascii">0 0 0  50000 0 0  100000 0 0  150000 0 0  200000 0 0  250000 0 0  300000 0 0  350000 0 0  400000 0 0  450000 0 0  500000 0 0  550000 0 0  600000 0 0  650000 0 0  700000 0 0  750000 0 0  800000 0 0  850000 0 0  900000 0 0  950000 0 0  1000000 0 0  0 50000 0  50000 50000 0  100000 50000 0  150000 50000 0  200000 50000 0  250000 50000 0  300000 50000 0  350000 50000 0  400000 50000 0  450000 50000 0  500000 50000 0  550000 50000 0  600000 50000 0  650000 50000 0  700000 50000 0  750000 50000 0  800000 50000 0  850000 50000 0  900000 50000 0  950000 50000 0  1000000 50000 0  0 100000 0  50000 100000 0  100000 100000 0  150000 100000 0  200000 100000 0  250000 100000 0  300000 100000 0  350000 100000 0  400000 100000 0  450000 100000 0  500000 100000 0  550000 100000 0  600000 100000 0  650000 100000 0  700000 100000 0  750000 100000 0  800000 100000 0  850000 100000 0  900000 100000 0  950000 100000 0  1000000 100000 0  0 150000 0  50000 150000 0  100000 150000 0  150000 150000 0  200000 150000 0  250000 150000 0  300000 150000 0  350000 150000 0  400000 150000 0  450000 150000 0  500000 150000 0  550000 150000 0  600000 150000 0  650000 150000 0  700000 150000 0  750000 150000 0  800000 150000 0  850000 150000 0  900000 150000 0  950000 150000 0  1000000 150000 0  0 200000 0  50000 200000 0  100000 200000 0  150000 200000 0  200000 200000 0  250000 200000 0  300000 200000 0  350000 200000 0  400000 200000 0  450000 200000 0  500000 200000 0  550000 200000 0  600000 200000 0  650000 200000 0  700000 200000 0  750000 200000 0  800000 200000 0  850000 200000 0  900000 200000 0  950000 200000 0  1000000 200000 0  0 250000 0  50000 250000 0  100000 250000 0  150000 250000 0  200000 250000 0  250000 250000 0  300000 250000 0  350000 250000 0  400000 250000 0  450000 250000 0  500000 250000 0  550000 250000 0  600000 250000 0  650000 250000 0  700000 250000 0  750000 250000 0  800000 250000 0  850000 250000 0  900000 250000 0  950000 250000 0  1000000 250000 0  0 300000 0  50000 300000 0  100000 300000 0  150000 300000 0  200000 300000 0  250000 300000 0  300000 300000 0  350000 300000 0  400000 300000 0  450000 300000 0  500000 300000 0  550000 300000 0  600000 300000 0  650000 300000 0  700000 300000 0  750000 300000 0  800000 300000 0  850000 300000 0  900000 300000 0  950000 300000 0  1000000 300000 0  0 350000 0  50000 350000 0  100000 350000 0  150000 350000 0  200000 350000 0  250000 350000 0  300000 350000 0  350000 350000 0  400000 350000 0  450000 350000 0  500000 350000 0  550000 350000 0  600000 350000 0  650000 350000 0  700000 350000 0  750000 350000 0  800000 350000 0  850000 350000 0  900000 350000 0  950000 350000 0  1000000 350000 0  0 400000 0  50000 400000 0  100000 400000 0  150000 400000 0  200000 400000 0  250000 400000 0  300000 400000 0  350000 400000 0  400000 400000 0  450000 400000 0  500000 400000 0  550000 400000 0  600000 400000 0  650000 400000 0  700000 400000 0  750000 400000 0  800000 400000 0  850000 400000 0  900000 400000 0  950000 400000 0  1000000 400000 0  0 450000 0  50000 450000 0  100000 450000 0  150000 450000 0  200000 450000 0  250000 450000 0  300000 450000 0  350000 450000 0  400000 450000 0  450000 450000 0  500000 450000 0  550000 450000 0  600000 450000 0  650000 450000 0  700000 450000 0  750000 450000 0  800000 450000 0  850000 450000 0  900000 450000 0  950000 450000 0  1000000 450000 0  0 500000 0  50000 500000 0  100000 500000 0  150000 500000 0  200000 500000 0  250000 500000 0  300000 500000 0  350000 500000 0  400000 500000 0  450000 500000 0  500000 500000 0  550000 500000 0  600000 500000 0  650000 500000 0  700000 500000 0  750000 500000 0  800000 500000 0  850000 500000 0  900000 500000 0  950000 500000 0  1000000 500000 0  0 550000 0  50000 550000 0  100000 550000 0  150000 550000 0  200000 550000 0  250000 550000 0  300000 550000 0  350000 550000 0  400000 550000 0  450000 550000 0  500000 550000 0  550000 550000 0  600000 550000 0  650000 550000 0  700000 550000 0  750000 550000 0  800000 550000 0  850000 550000 0  900000 550000 0  950000 550000 0  1000000 550000 0  0 600000 0  50000 600000 0  100000 600000 0  150000 600000 0  200000 600000 0  250000 600000 0  300000 600000 0  350000 600000 0  400000 600000 0  450000 600000 0  500000 600000 0  550000 600000 0  600000 600000 0  650000 600000 0  700000 600000 0  750000 600000 0  800000 600000 0  850000 600000 0  900000 600000 0  950000 600000 0  1000000 600000 0  0 650000 0  50000 650000 0  100000 650000 0  150000 650000 0  200000 650000 0  250000 650000 0  300000 650000 0  350000 650000 0  400000 650000 0  450000 650000 0  500000 650000 0  550000 650000 0  600000 650000 0  650000 650000 0  700000 650000 0  750000 650000 0  800000 650000 0  850000 650000 0  900000 650000 0  950000 650000 0  1000000 650000 0  0 700000 0  50000 700000 0  100000 700000 0  150000 700000 0  200000 700000 0  250000 700000 0  300000 700000 0  350000 700000 0  400000 700000 0  450000 700000 0  500000 700000 0  550000 700000 0  600000 700000 0  650000 700000 0  700000 700000 0  750000 700000 0  800000 700000 0  850000 700000 0  900000 700000 0  950000 700000 0  1000000 700000 0  0 750000 0  50000 750000 0  100000 750000 0  150000 750000 0  200000 750000 0  250000 750000 0  300000 750000 0  350000 750000 0  400000 750000 0  450000 750000 0  500000 750000 0  550000 750000 0  600000 750000 0  650000 750000 0  700000 750000 0  750000 750000 0  800000 750000 0  850000 750000 0  900000 750000 0  950000 750000 0  1000000 750000 0  0 800000 0  50000 800000 0  100000 800000 0  150000 800000 0  200000 800000 0  250000 800000 0  300000 800000 0  350000 800000 0  400000 800000 0  450000 800000 0  500000 800000 0  550000 800000 0  600000 800000 0  650000 800000 0  700000 800000 0  750000 800000 0  800000 800000 0  850000 800000 0  900000 800000 0  950000 800000 0  1000000 800000 0  0 850000 0  50000 850000 0  100000 850000 0  150000 850000 0  200000 850000 0  250000 850000 0  300000 850000 0  350000 850000 0  400000 850000 0  450000 850000 0  500000 850000 0  550000 850000 0  600000 850000 0  650000 850000 0  700000 850000 0  750000 850000 0  800000 850000 0  850000 850000 0  900000 850000 0  950000 850000 0  1000000 850000 0  0 900000 0  50000 900000 0  100000 900000 0  150000 900000 0  200000 900000 0  250000 900000 0  300000 900000 0  350000 900000 0  400000 900000 0  450000 900000 0  500000 900000 0  550000 900000 0  600000 900000 0  650000 900000 0  700000 900000 0  750000 900000 0  800000 900000 0  850000 900000 0  900000 900000 0  950000 900000 0  1000000 900000 0  0 950000 0  50000 950000 0  100000 950000 0  150000 950000 0  200000 950000 0  250000 950000 0  300000 950000 0  350000 950000 0  400000 950000 0  450000 950000 0  500000 950000 0  550000 950000 0  600000 950000 0  650000 950000 0  700000 950000 0  750000 950000 0  800000 950000 0  850000 950000 0  900000 950000 0  950000 950000 0  1000000 950000 0  0 1000000 0  50000 1000000 0  100000 1000000 0  150000 1000000 0  200000 1000000 0  250000 1000000 0  300000 1000000 0  350000 1000000 0  400000 1000000 0  450000 1000000 0  500000 1000000 0  550000 1000000 0  600000 1000000 0  650000 1000000 0  700000 1000000 0  750000 1000000 0  800000 1000000 0  850000 1000000 0  900000 1000000 0  950000 1000000 0  1000000 1000000 0  0 1050000 0  50000 1050000 0  100000 1050000 0  150000 1050000 0  200000 1050000 0  250000 1050000 0  300000 1050000 0  350000 1050000 0  400000 1050000 0  450000 1050000 0  500000 1050000 0  550000 1050000 0  600000 1050000 0  650000 1050000 0  700000 1050000 0  750000 1050000 0  800000 1050000 0  850000 1050000 0  900000 1050000 0  950000 1050000 0  1000000 1050000 0  0 1100000 0  50000 1100000 0  100000 1100000 0  150000 1100000 0  200000 1100000 0  250000 1100000 0  300000 1100000 0  350000 1100000 0  400000 1100000 0  450000 1100000 0  500000 1100000 0  550000 1100000 0  600000 1100000 0  650000 1100000 0  700000 1100000 0  750000 1100000 0  800000 1100000 0  850000 1100000 0  900000 1100000 0  950000 1100000 0  1000000 1100000 0  0 1150000 0  50000 1150000 0  100000 1150000 0  150000 1150000 0  200000 1150000 0  250000 1150000 0  300000 1150000 0  350000 1150000 0  400000 1150000 0  450000 1150000 0  500000 1150000 0  550000 1150000 0  600000 1150000 0  650000 1150000 0  700000 1150000 0  750000 1150000 0  800000 1150000 0  850000 1150000 0  900000 1150000 0  950000 1150000 0  1000000 1150000 0  0 1200000 0  50000 1200000 0  100000 1200000 0  150000 1200000 0  200000 1200000 0  250000 1200000 0  300000 1200000 0  350000 1200000 0  400000 1200000 0  450000 1200000 0  500000 1200000 0  550000 1200000 0  600000 1200000 0  650000 1200000 0  700000 1200000 0  750000 1200000 0  800000 1200000 0  850000 1200000 0  900000 1200000 0  950000 1200000 0  1000000 1200000 0  0 1250000 0  50000 1250000 0  100000 1250000 0  150000 1250000 0  200000 1250000 0  250000 1250000 0  300000 1250000 0  350000 1250000 0  400000 1250000 0  450000 1250000 0  500000 1250000 0  550000 1250000 0  600000 1250000 0  650000 1250000 0  700000 1250000 0  750000 1250000 0  800000 1250000 0  850000 1250000 0  900000 1250000 0  950000 1250000 0  1000000 1250000 0  0 1300000 0  50000 1300000 0  100000 1300000 0  150000 1300000 0  200000 1300000 0  250000 1300000 0  300000 1300000 0  350000 1300000 0  400000 1300000 0  450000 1300000 0  500000 1300000 0  550000 1300000 0  600000 1300000 0  650000 1300000 0  700000 1300000 0  750000 1300000 0  800000 1300000 0  850000 1300000 0  900000 1300000 0  950000 1300000 0  1000000 1300000 0  0 1350000 0  50000 1350000 0  100000 1350000 0  150000 1350000 0  200000 1350000 0  250000 1350000 0  300000 1350000 0  350000 1350000 0  400000 1350000 0  450000 1350000 0  500000 1350000 0  550000 1350000 0  600000 1350000 0  650000 1350000 0  700000 135
[...]
<PointData  Scalars="f_1511"> 
<DataArray  type="Float64"  Name="f_1511"  format="ascii">-8.0256075177831061e+00  -8.0252484115860288e+00  -8.0234859081751555e+00  -8.0203144764097622e+00  -8.0158159317559061e+00  -8.0101096632206392e+00  -8.0033470822639696e+00  -7.9957072872757182e+00  -7.9873922397244446e+00  -7.9786213606789289e+00  -7.9696256825700615e+00  -7.9606417144051225e+00  -7.9519051803342347e+00  -7.9436447933522381e+00  -7.9360762319886380e+00  -7.9293965105416433e+00  -7.9237790197285225e+00  -7.9193697849123570e+00  -7.9162858095042790e+00  -7.9146093021988904e+00  -7.9142450725091749e+00  -8.0259461820585134e+00  -8.0255950503607760e+00  -8.0238074491105333e+00  -8.0206150419067175e+00  -8.0160930853239662e+00  -8.0103587566410894e+00  -8.0035629362993479e+00  -7.9958850113423221e+00  -7.9875276502604100e+00  -7.9787112158805034e+00  -7.9696678219104022e+00  -7.9606351360783938e+00  -7.9518500682671345e+00  -7.9435424945495301e+00  -7.9359291731358130e+00  -7.9292080093047925e+00  -7.9235528056025313e+00  -7.9191084686555264e+00  -7.9159857442153490e+00  -7.9142504433732634e+00  -7.9138861484292642e+00  -8.0275989464483182e+00  -8.0272719555919938e+00  -8.0254432211744753e+00  -8.0221545738006466e+00  -8.0174961126099014e+00  -8.0115909810462860e+00  -8.0045946058720379e+00  -7.9966912007186313e+00  -7.9880889052434503e+00  -7.9790141341230232e+00  -7.9697054564450971e+00  -7.9604072022035428e+00  -7.9513629546305715e+00  -7.9428090822933655e+00  -7.9349684692275275e+00  -7.9280446114108383e+00  -7.9222162637002134e+00  -7.9176328231107789e+00  -7.9144104525265728e+00  -7.9126272547727385e+00  -7.9123001150035135e+00  -8.0305453329001892e+00  -8.0302218329265216e+00  -8.0283243648559139e+00  -8.0248793721942935e+00  -8.0199861541164505e+00  -8.0137791744538998e+00  -8.0064241833470060e+00  -7.9981157196257504e+00  -7.9890727880540888e+00  -7.9795333029174831e+00  -7.9697478318023860e+00  -7.9599729650774016e+00  -7.9504645358695942e+00  -7.9414708790258217e+00  -7.9332263164572590e+00  -7.9259450813959083e+00  -7.9198159449933581e+00  -7.9149978363043765e+00  -7.9116163134156885e+00  -7.9097570828023418e+00  -7.9094294739251607e+00  -8.0347398289056962e+00  -8.0344070017233644e+00  -8.0324013678965702e+00  -8.0287360182609557e+00  -8.0235141754778070e+00  -8.0168818732733058e+00  -8.0090188360360912e+00  -8.0001346969223661e+00  -7.9904644983246840e+00  -7.9802630189658537e+00  -7.9697982956356075e+00  -7.9593446896574198e+00  -7.9491757635734093e+00  -7.9395571897021000e+00  -7.9307399058272701e+00  -7.9229537541639470e+00  -7.9164018626951922e+00  -7.9112559170931878e+00  -7.9076515436351924e+00  -7.9056780810529963e+00  -7.9053321602913460e+00  -8.0401566296554225e+00  -8.0398048497216319e+00  -8.0376500715259276e+00  -8.0336965057520224e+00  -8.0280513458747009e+00  -8.0208725778613790e+00  -8.0123563465096783e+00  -8.0027312813529097e+00  -7.9922531398436858e+00  -7.9811986385261600e+00  -7.9698585527865911e+00  -7.9585303548094775e+00  -7.9475106459502447e+00  -7.9370876120732570e+00  -7.9275337224502334e+00  -7.9190988980680945e+00  -7.9120043487081100e+00  -7.9064370368771852e+00  -7.9025435236108192e+00  -7.9004165960048160e+00  -7.9000426199336680e+00  -8.0467882083581852e+00  -8.0464092707699741e+00  -8.0440647207343776e+00  -8.0397533037889826e+00  -8.0335883086888185e+00  -8.0257413979657901e+00  -8.0164276666587497e+00  -8.0058982993928733e+00  -7.9944340902081459e+00  -7.9823384831608690e+00  -7.9699300337999910e+00  -7.9575344662438328e+00  -7.9454765396031561e+00  -7.9340719306022311e+00  -7.9236193339264389e+00  -7.9143929756521398e+00  -7.9066356770137007e+00  -7.9005523021477204e+00  -7.8963021185038169e+00  -7.8939830156500923e+00  -7.8935736313868254e+00  -8.0546415716923168e+00  -8.0542278649201098e+00  -8.0516532414471786e+00  -8.0469132071140219e+00  -8.0401298932618204e+00  -8.0314912920241408e+00  -8.0212344652859660e+00  -8.0096367890737650e+00  -7.9970083017232358e+00  -7.9836837876684230e+00  -7.9700144338407677e+00  -7.9563591696769969e+00  -7.9430758536381347e+00  -7.9305124718405864e+00  -7.9189985133138325e+00  -7.9088366801253684e+00  -7.9002950279095048e+00  -7.8935993168635115e+00  -7.8889239971682610e+00  -7.8863743250905145e+00  -7.8859228820612044e+00  -8.0637340986496504e+00  -8.0632781973149807e+00  -8.0604330485894682e+00  -8.0551923912271040e+00  -8.0476900893870162e+00  -8.0381336640279386e+00  -8.0267856440912038e+00  -8.0139534854390515e+00  -7.9999807303551762e+00  -7.9852380410543624e+00  -7.9701139428627190e+00  -7.9550053537116483e+00  -7.9403080118292220e+00  -7.9264069118747535e+00  -7.9136668626108744e+00  -7.9024232839565016e+00  -7.8929733153028820e+00  -7.8855670032751632e+00  -7.8803969191486436e+00  -7.8775781208587938e+00  -7.8770781599937365e+00  -8.0740890771394849e+00  -8.0735835142591288e+00  -8.0704267572958681e+00  -8.0646118795995285e+00  -8.0562874415972789e+00  -8.0456840722075782e+00  -8.0330936891250957e+00  -8.0188580131794485e+00  -8.0033584736800822e+00  -7.9870061193063808e+00  -7.9702313876880488e+00  -7.9534737865965743e+00  -7.9371715405080705e+00  -7.9217512391903950e+00  -7.9076175312007493e+00  -7.8951429303458109e+00  -7.8846577895091512e+00  -7.8764402151199544e+00  -7.8707041926651700e+00  -7.8675771150242371e+00  -7.8670221778118963e+00  -8.0857307703725798e+00  -8.0851678911991147e+00  -8.0816574312943494e+00  -8.0751927955890253e+00  -8.0659403705943689e+00  -8.0541578422655853e+00  -8.0401708466577944e+00  -8.0243598596496764e+00  -8.0071487119469698e+00  -7.9889933009195353e+00  -7.9703703677175319e+00  -7.9517663597735941e+00  -7.9336663516286094e+00  -7.9165429554878894e+00  -7.9008451626381051e+00  -7.8869871116984243e+00  -7.8753368132313142e+00  -7.8662046129343937e+00  -7.8598295738015240e+00  -7.8563541312772740e+00  -7.8557376709270308e+00  -8.0986787879788587e+00  -8.0980506457414307e+00  -8.0941430993892904e+00  -8.0869509816808964e+00  -8.0766619668820603e+00  -8.0635652154421411e+00  -8.0480248717810845e+00  -8.0304649759040778e+00  -8.0113563743416130e+00  -7.9912041464652539e+00  -7.9705354183391321e+00  -7.9498875236628770e+00  -7.9297963600155850e+00  -7.9107847135549267e+00  -7.8933503394284150e+00  -7.8779536808577113e+00  -7.8650052096879772e+00  -7.8548521777528650e+00  -7.8477628700748685e+00  -7.8438977966397907e+00  -7.8432131323216447e+00  -8.1129415058262762e+00  -8.1122397798929171e+00  -8.1078902747560821e+00  -8.0998906415233449e+00  -8.0884538628227940e+00  -8.0739056503237983e+00  -8.0566540294182456e+00  -8.0371717669246063e+00  -8.0159813780723361e+00  -7.9936411760098673e+00  -7.9707322206652931e+00  -7.9478460171100993e+00  -7.9255726157640316e+00  -7.9044886473082610e+00  -7.8851448451482877e+00  -7.8680527590623353e+00  -7.8536705561395541e+00  -7.8423876993980173e+00  -7.8345065231129478e+00  -7.8302091836928582e+00  -7.8294494749076744e+00  -8.1285082468131762e+00  -8.1277241696487135e+00  -8.1228861773141983e+00  -8.1139966561550505e+00  -8.1012987923541768e+00  -8.0851608819077487e+00  -8.0660409885547697e+00  -8.0444661828529807e+00  -8.0210152441490159e+00  -7.9963032513613035e+00  -7.9709678716158558e+00  -7.9456570097702963e+00  -7.9210171687992856e+00  -7.8976816945023902e+00  -7.8762581055482768e+00  -7.8573139324499550e+00  -7.8413608083983624e+00  -7.8288365879021891e+00  -7.8200834754396293e+00  -7.8153096910598814e+00  -7.8144679162530828e+00  -8.1453398989575074e+00  -8.1444641772559248e+00  -8.1390893096643477e+00  -8.1292251796244965e+00  -8.1151514039150179e+00  -8.0972862953317790e+00  -8.0761452014833477e+00  -8.0523155766578647e+00  -8.0264368575018423e+00  -7.9991835499368982e+00  -7.9712512273925640e+00  -7.9433447955856593e+00  -7.9161679194605501e+00  -7.8904122626756070e+00  -7.8667452263482840e+00  -7.8457951836824114e+00  -7.8281336918743829e+00  -7.8142544036653030e+00  -7.8045466719511243e+00  -7.7992504874387567e+00  -7.7983194091670605e+00  -8.1633576043188647e+00  -8.1623803134696153e+00  -8.1564179734364295e+00  -8.1454920433725988e+00  -8.1299268120840846e+00  -8.1102000953959141e+00  -8.0868932940689842e+00  -8.0606609428348932e+00  -8.0322071050539012e+00  -8.0022669998806215e+00  -7.9715933330319491e+00  -7.9409461929390561e+00  -7.9110847458082292e+00  -7.8827586455547705e+00  -7.8566971189386878e+00  -7.8335940886538094e+00  -7.8140883786965531e+00  -7.7987385778991598e+00  -7.7879906087992810e+00  -7.7821238920821596e+00  -7.7810959841193617e+00  -8.1824290979426380e+00  -8.1813395164578164e+00  -8.1747362280000999e+00  -8.1626583909168087e+00  -8.1454862589114736e+00  -8.1237696513452597e+00  -8.0981669172777249e+00  -8.0694071043438296e+00  -8.0382621004380734e+00  -8.0055270351073666e+00  -7.9720079486724096e+00  -7.9385148156297287e+00  -7.9058572252581580e+00  -7.8748396514724588e+00  -7.8462532909509690e+00  -7.8208619193610840e+00  -7.7993800908482864e+00  -7.7824429047891748e+00  -7.7705654285000101e+00  -7.7640771286467416e+00  -7.7629444281622408e+00  -8.2023522003221263e+00  -8.2011385285937628e+00  -8.1938366712817796e+00  -8.1805128105944718e+00  -8.1616191022806426e+00  -8.1377942776492844e+00  -8.1097874439323725e+00  -8.0784103954049939e+00  -8.0445047093938484e+00  -8.0089215351396703e+00  -7.9725121764263172e+00  -7.9361263623770606e+00  -7.9006142609888652e+00  -7.8668279332610043e+00  -7.8356179606179204e+00  -7.8078214296865340e+00  -7.7842384352024814e+00  -7.7655955467966837e+00  -7.7524941866834984e+00  -7.7453289826954936e+00  -7.7440828111071935e+00  -8.2228348497876187e+00  -8.2214837184793410e+00  -8.2134192313038170e+00  -8.1987490059361452e+00  -8.1780201469216696e+00  -8.1519835945110071e+00  -8.1214968796830700e+00  -8.0874634466706024e+00  -8.0507941685370490e+00  -8.0123878602901986e+00  -7.9731271755016255e+00  -7.9338850003701644e+00  -7.8955358344279887e+00  -7.8589664601571112e+00  -7.8250801956245333e+00  -7.7947892506446266e+00  -7.7689905043631713e+00  -7.7485215370348062e+00  -7.7340941159038925e+00  -7.7261900418408409e+00  -7.7248205071916987e+00  -8.2434708626261308e+00  -8.2419664654996421e+00  -8.2330648346452548e+00  -8.2169376884783230e+00  -8.1942610743748769e+00  -8.1659305416194368e+00  -8.1329344786344873e+00  -8.0962769128114029e+00  -8.0569338203470178e+00  -8.0158370178093676e+00  -7.9738789196676985e+00  -7.9319307364502256e+00  -7.8908668464906482e+00  -7.8515883490618767e+00  -7.8150387018662846e+00  -7.7822039555796243e+00  -7.7540900918048701e+00  -7.7316711481185969e+00  -7.7158030497790762e+00  -7.7070874529212663e+00  -7.7055825971300020e+00  -8.2637102495993968e+00  -8.2620328013149642e+00  -8.2522022400293302e+00  -8.2344908044372218e+00  -8.2097544134334282e+00  -8.1790782003868454e+00  -8.1436089791183175e+00  -8.1044585628246324e+00  -8.0626575003233434e+00  -8.0191472639490406e+00  -7.9747988884206409e+00  -7.9304472902186198e+00  -7.8869324326024604e+00  -7.8451396961604800e+00  -7.8060315386774217e+00  -7.7706608956716989e+00  -7.7401547998664793e+00  -7.7156561360543954e+00  -7.6982127737598667e+00  -7.6885955944107200e+00  -7.6869399655450099e+00  -8.2828222426851585e+00  -8.2809451863611194e+00  -8.2700652408487922e+00  -8.2506152612182397e+00  -8.2237081768099660e+00  -8.1906800528415324e+00  -8.1528674206337595e+00  -8.1114913696583439e+00  -8.0676161099917572e+00  -8.0221579549926414e+00  -7.9759244756731986e+00  -7.9296692789477063e+00  -7.8841530037007566e+00  -7.8402038074706066e+00  -7.7987701043266711e+00  -7.7609546584714897e+00  -7.7280133763886285e+00  -7.7012969599570136e+00  -7.6821121932729408e+00  -7.6714749392762736e+00  -7.6696472206712656e+00  -8.2998478879350390e+00  -8.2977326544441610e+00  -8.2856353367541278e+00  -8.2642517792980730e+00  -8.2350692041471145e+00  -8.1997547022115107e+00  -8.1598637447617861e+00  -8.1167145331706152e+00  -8.0713676592115249e+00  -8.0246653211153252e+00  -7.9772987333884089e+00  -7.9298863412159770e+00  -7.8830552468800708e+00  -7.8375228033729121e+00  -7.7941746167069779e+00  -7.7541290001364951e+00  -7.7187662112875035e+00  -7.6896859691624275e+00  -7.6685453866483693e+00  -7.6567231010611820e+00  -7.6546921455228230e+00  -8.3135365195378004e+00  -8.3111220732871924e+00  -8.2975607981771802e+00  -8.2739921643658896e+00  -8.2424541603946526e+00  -8.2050395548992938e+00  -8.1635348007008126e+00  -8.1193153348176406e+00  -8.0733768189461479e+00  -8.0264231321252240e+00  -7.9789688464480735e+00  -7.9314400610023812e+00  -7.8842720579253811e+00  -7.8380082022255939e+00  -7.7934038712348714e+00  -7.7515312290925582e+00  -7.7138620913577274e+00  -7.6822747820960755e+00  -7.6588939806219640e+00  -7.6456455583961906e+00  -7.6433635882368076e+00  -8.3222553655256348e+00  -8.3194353793806659e+00  -8.3040347004103676e+00  -8.2779655728562584e+00  -8.2440712940111087e+00  -8.2049558941868153e+00  -8.1625994420958339e+00  -8.1183458676177302e+00  -8.0730337786967699e+00  -8.0271528594076376e+00  -7.9809825153686500e+00  -7.9347073596039515e+00  -7.8885197734837327e+00  -7.8427248771862965e+00  -7.7978632593398816e+00  -7.7548606148803350e+00  -7.7151923043503601e+00  -7.6809992767667445e+00  -7.6550024051993066e+00  -7.6399611106516438e+00  -7.6373515026433276e+00  -8.3238511603850007e+00  -8.3204182699412641e+00  -8.3025983613947130e+00  -8.2736845480761350e+00  -8.2376495256407072e+00  -8.1976145965407774e+00  -8.1556097239918515e+00  -8.1127867126381208e+00  -8.0697060610249594e+00  -8.0265693385768149e+00  -7.9833813466843848e+00  -7.9400622130526699e+00  -7.8965360331387418e+00  -7.8528224626443928e+00  -7.8091588188974530e+00  -7.7661823020997991e+00  -7.7251929877098293e+00  -7.6884622287668405e+00  -7.6593843547268570e+00  -7.6419748429300984e+00  -7.6389084502823010e+00  -8.3154194111917636e+00  -8.3109142851803259e+00  -8.2898098871146839e+00  -8.2578590852820195e+00  -8.2204288080474495e+00  -8.1809239770794413e+00  -8.1411015612352013e+00  -8.1016865671247960e+00  -8.0628380119989327e+00  -8.0244275312639459e+00  -7.9861905682307288e+00  -7.9478080715303205e+00  -7.9089594439647417e+00  -7.8693776512931448e+00  -7.8289392423226181e+00  -7.7878370390179024e+00  -7.7469086591280778e+00  -7.7081918728274728e+00  -7.6755926943629493e+00  -7.6548980420960522e+00  -7.6511419090758341e+00  -8.2928649856593442e+00  -8.2861564968242352e+00  -8.2606999517314144e+00  -8.2262711030768170e+00  -8.1893555156531601e+00  -8.1529120930463996e+00  -8.1179072409716646e+00  -8.0844033194778309e+00  -8.0521044815027896e+00  -8.0205905012258860e+00  -7.9894044894241336e+00  -7.9580789456858589e+00  -7.9261397840316086e+00  -7.8931105038489555e+00  -7.8585398633608978e+00  -7.8220984581682984e+00  -7.7838494669605129e+00  -7.7449244177281704e+00  -7.7089208678094190e+00  -7.6835378524184827e+00  -7.6786264412141785e+00  -8.2498033409792786e+00  -8.2381018391657168e+00  -8.2080822564056461e+00  -8.1740872641677829e+00  -8.1417979988165445e+00  -8.1124199898512472e+00  -8.0856724417728305e+00  -8.0609367584229688e+00  -8.0375959361022993e+00  -8.0151018309748547e+00  -7.9929637262935671e+00  -7.9707175909663484e+00  -7.9478912516894766e+00  -7.9239679201767430e+00  -7.8983499634602641e+00  -7.8703371083160034e+00  -7.8391827830669065e+00  -7.8044671382513036e+00  -7.7675956637428216e+00  -7.7361106251211087e+00  -7.7289369291907084e+00  -8.1733520972732343e+00  -8.1516973217293369e+00  -8.1227836048139306e+00  -8.0977019870477172e+00  -8.0772622901354740e+00  -8.0602305711613180e+00  -8.0454828726621077e+00  -8.0322331038205483e+00  -8.0199380176169530e+00  -8.0081988563448352e+00  -7.9966944008688312e+00  -7.9851352466576815e+00  -7.9732271224703171e+00  -7.9606329064208818e+00  -7.9469219531958810e+00  -7.9314898571939461e+00  -7.9134234870686795e+00  -7.8913070216174726e+00  -7.8632528165521487e+00  -7.8297148775378194e+00  -7.8177230032359226e+00  -8.0000000000000000e+00  -8.0000000000000000e+00  -8.0000000000000000e+00  -8.0000000000000000e+00  -8.0000000000000000e+00  -8.0000000000000000e+00  -8.0000000000000000e+00  -8.0000000000000000e+00  -8.0000000000000000e+00  -8.0000000000000000e+00  -8.0000000000000000e+00  -8.0000000000000000e+00  -8.0000000000000000e+00  -8.0000000000000000e+00  -8.0000000000000000e+00  -8.0000000000000000e+00  -8.0000000000000000e+00  -8.0000000000000000e+00  -8.0000000000000000e+00  -8.0000000000000000e+00  -8.0000000000000000e+00  </DataArray> 
</PointData> 
</Piece>
</UnstructuredGrid>
</VTKFile>