<?xml version="1.0"?>
<VTKFile type="UnstructuredGrid"  version="0.1"  >
<UnstructuredGrid>
<Piece  NumberOfPoints="651" NumberOfCells="1200">
<Points>
<DataArray  type="Float64"  NumberOfComponents="3"  format="ascii">0 0 0  50000 0 0  100000 0 0  150000 0 0  200000 0 0  250000 0 0  300000 0 0  350000 0 0  400000 0 0  450000 0 0  500000 0 0  550000 0 0  600000 0 0  650000 0 0  700000 0 0  750000 0 0  800000 0 0  850000 0 0  900000 0 0  950000 0 0  1000000 0 0  0 50000 0  50000 50000 0  100000 50000 0  150000 50000 0  200000 50000 0  250000 50000 0  300000 50000 0  350000 50000 0  400000 50000 0  450000 50000 0  500000 50000 0  550000 50000 0  600000 50000 0  650000 50000 0  700000 50000 0  750000 50000 0  800000 50000 0  850000 50000 0  900000 50000 0  950000 50000 0  1000000 50000 0  0 100000 0  50000 100000 0  100000 100000 0  150000 100000 0  200000 100000 0  250000 100000 0  300000 100000 0  350000 100000 0  400000 100000 0  450000 100000 0  500000 100000 0  550000 100000 0  600000 100000 0  650000 100000 0  700000 100000 0  750000 100000 0  800000 100000 0  850000 100000 0  900000 100000 0  950000 100000 0  1000000 100000 0  0 150000 0  50000 150000 0  100000 150000 0  150000 150000 0  200000 150000 0  250000 150000 0  300000 150000 0  350000 150000 0  400000 150000 0  450000 150000 0  500000 150000 0  550000 150000 0  600000 150000 0  650000 150000 0  700000 150000 0  750000 150000 0  800000 150000 0  850000 150000 0  900000 150000 0  950000 150000 0  1000000 150000 0  0 200000 0  50000 200000 0  100000 200000 0  150000 200000 0  200000 200000 0  250000 200000 0  300000 200000 0  350000 200000 0  400000 200000 0  450000 200000 0  500000 200000 0  550000 200000 0  600000 200000 0  650000 200000 0  700000 200000 0  750000 200000 0  800000 200000 0  850000 200000 0  900000 200000 0  950000 200000 0  1000000 200000 0  0 250000 0  50000 250000 0  100000 250000 0  150000 250000 0  200000 250000 0  250000 250000 0  300000 250000 0  350000 250000 0  400000 250000 0  450000 250000 0  500000 250000 0  550000 250000 0  600000 250000 0  650000 250000 0  700000 250000 0  750000 250000 0  800000 250000 0  850000 250000 0  900000 250000 0  950000 250000 0  1000000 250000 0  0 300000 0  50000 300000 0  100000 300000 0  150000 300000 0  200000 300000 0  250000 300000 0  300000 300000 0  350000 300000 0  400000 300000 0  450000 300000 0  500000 300000 0  550000 300000 0  600000 300000 0  650000 300000 0  700000 300000 0  750000 300000 0  800000 300000 0  850000 300000 0  900000 300000 0  950000 300000 0  1000000 300000 0  0 350000 0  50000 350000 0  100000 350000 0  150000 350000 0  200000 350000 0  250000 350000 0  300000 350000 0  350000 350000 0  400000 350000 0  450000 350000 0  500000 350000 0  550000 350000 0  600000 350000 0  650000 350000 0  700000 350000 0  750000 350000 0  800000 350000 0  850000 350000 0  900000 350000 0  950000 350000 0  1000000 350000 0  0 400000 0  50000 400000 0  100000 400000 0  150000 400000 0  200000 400000 0  250000 400000 0  300000 400000 0  350000 400000 0  400000 400000 0  450000 400000 0  500000 400000 0  550000 400000 0  600000 400000 0  650000 400000 0  700000 400000 0  750000 400000 0  800000 400000 0  850000 400000 0  900000 400000 0  950000 400000 0  1000000 400000 0  0 450000 0  50000 450000 0  100000 450000 0  150000 450000 0  200000 450000 0  250000 450000 0  300000 450000 0  350000 450000 0  400000 450000 0  450000 450000 0  500000 450000 0  550000 450000 0  600000 450000 0  650000 450000 0  700000 450000 0  750000 450000 0  800000 450000 0  850000 450000 0  900000 450000 0  950000 450000 0  1000000 450000 0  0 500000 0  50000 500000 0  100000 500000 0  150000 500000 0  200000 500000 0  250000 500000 0  300000 500000 0  350000 500000 0  400000 500000 0  450000 500000 0  500000 500000 0  550000 500000 0  600000 500000 0  650000 500000 0  700000 500000 0  750000 500000 0  800000 500000 0  850000 500000 0  900000 500000 0  950000 500000 0  1000000 500000 0  0 550000 0  50000 550000 0  100000 550000 0  150000 550000 0  200000 550000 0  250000 550000 0  300000 550000 0  350000 550000 0  400000 550000 0  450000 550000 0  500000 550000 0  550000 550000 0  600000 550000 0  650000 550000 0  700000 550000 0  750000 550000 0  800000 550000 0  850000 550000 0  900000 550000 0  950000 550000 0  1000000 550000 0  0 600000 0  50000 600000 0  100000 600000 0  150000 600000 0  200000 600000 0  250000 600000 0  300000 600000 0  350000 600000 0  400000 600000 0  450000 600000 0  500000 600000 0  550000 600000 0  600000 600000 0  650000 600000 0  700000 600000 0  750000 600000 0  800000 600000 0  850000 600000 0  900000 600000 0  950000 600000 0  1000000 600000 0  0 650000 0  50000 650000 0  100000 650000 0  150000 650000 0  200000 650000 0  250000 650000 0  300000 650000 0  350000 650000 0  400000 650000 0  450000 650000 0  500000 650000 0  550000 650000 0  600000 650000 0  650000 650000 0  700000 650000 0  750000 650000 0  800000 650000 0  850000 650000 0  900000 650000 0  950000 650000 0  1000000 650000 0  0 700000 0  50000 700000 0  100000 700000 0  150000 700000 0  200000 700000 0  250000 700000 0  300000 700000 0  350000 700000 0  400000 700000 0  450000 700000 0  500000 700000 0  550000 700000 0  600000 700000 0  650000 700000 0  700000 700000 0  750000 700000 0  800000 700000 0  850000 700000 0  900000 700000 0  950000 700000 0  1000000 700000 0  0 750000 0  50000 750000 0  100000 750000 0  150000 750000 0  200000 750000 0  250000 750000 0  300000 750000 0  350000 750000 0  400000 750000 0  450000 750000 0  500000 750000 0  550000 750000 0  600000 750000 0  650000 750000 0  700000 750000 0  750000 750000 0  800000 750000 0  850000 750000 0  900000 750000 0  950000 750000 0  1000000 750000 0  0 800000 0  50000 800000 0  100000 800000 0  150000 800000 0  200000 800000 0  250000 800000 0  300000 800000 0  350000 800000 0  400000 800000 0  450000 800000 0  500000 800000 0  550000 800000 0  600000 800000 0  650000 800000 0  700000 800000 0  750000 800000 0  800000 800000 0  850000 800000 0  900000 800000 0  950000 800000 0  1000000 800000 0  0 850000 0  50000 850000 0  100000 850000 0  150000 850000 0  200000 850000 0  250000 850000 0  300000 850000 0  350000 850000 0  400000 850000 0  450000 850000 0  500000 850000 0  550000 850000 0  600000 850000 0  650000 850000 0  700000 850000 0  750000 850000 0  800000 850000 0  850000 850000 0  900000 850000 0  950000 850000 0  1000000 850000 0  0 900000 0  50000 900000 0  100000 900000 0  150000 900000 0  200000 900000 0  250000 900000 0  300000 900000 0  350000 900000 0  400000 900000 0  450000 900000 0  500000 900000 0  550000 900000 0  600000 900000 0  650000 900000 0  700000 900000 0  750000 900000 0  800000 900000 0  850000 900000 0  900000 900000 0  950000 900000 0  1000000 900000 0  0 950000 0  50000 950000 0  100000 950000 0  150000 950000 0  200000 950000 0  250000 950000 0  300000 950000 0  350000 950000 0  400000 950000 0  450000 950000 0  500000 950000 0  550000 950000 0  600000 950000 0  650000 950000 0  700000 950000 0  750000 950000 0  800000 950000 0  850000 950000 0  900000 950000 0  950000 950000 0  1000000 950000 0  0 1000000 0  50000 1000000 0  100000 1000000 0  150000 1000000 0  200000 1000000 0  250000 1000000 0  300000 1000000 0  350000 1000000 0  400000 1000000 0  450000 1000000 0  500000 1000000 0  550000 1000000 0  600000 1000000 0  650000 1000000 0  700000 1000000 0  750000 1000000 0  800000 1000000 0  850000 1000000 0  900000 1000000 0  950000 1000000 0  1000000 1000000 0  0 1050000 0  50000 1050000 0  100000 1050000 0  150000 1050000 0  200000 1050000 0  250000 1050000 0  300000 1050000 0  350000 1050000 0  400000 1050000 0  450000 1050000 0  500000 1050000 0  550000 1050000 0  600000 1050000 0  650000 1050000 0  700000 1050000 0  750000 1050000 0  800000 1050000 0  850000 1050000 0  900000 1050000 0  950000 1050000 0  1000000 1050000 0  0 1100000 0  50000 1100000 0  100000 1100000 0  150000 1100000 0  200000 1100000 0  250000 1100000 0  300000 1100000 0  350000 1100000 0  400000 1100000 0  450000 1100000 0  500000 1100000 0  550000 1100000 0  600000 1100000 0  650000 1100000 0  700000 1100000 0  750000 1100000 0  800000 1100000 0  850000 1100000 0  900000 1100000 0  950000 1100000 0  1000000 1100000 0  0 1150000 0  50000 1150000 0  100000 1150000 0  150000 1150000 0  200000 1150000 0  250000 1150000 0  300000 1150000 0  350000 1150000 0  400000 1150000 0  450000 1150000 0  500000 1150000 0  550000 1150000 0  600000 1150000 0  650000 1150000 0  700000 1150000 0  750000 1150000 0  800000 1150000 0  850000 1150000 0  900000 1150000 0  950000 1150000 0  1000000 1150000 0  0 1200000 0  50000 1200000 0  100000 1200000 0  150000 1200000 0  200000 1200000 0  250000 1200000 0  300000 1200000 0  350000 1200000 0  400000 1200000 0  450000 1200000 0  500000 1200000 0  550000 1200000 0  600000 1200000 0  650000 1200000 0  700000 1200000 0  750000 1200000 0  800000 1200000 0  850000 1200000 0  900000 1200000 0  950000 1200000 0  1000000 1200000 0  0 1250000 0  50000 1250000 0  100000 1250000 0  150000 1250000 0  200000 1250000 0  250000 1250000 0  300000 1250000 0  350000 1250000 0  400000 1250000 0  450000 1250000 0  500000 1250000 0  550000 1250000 0  600000 1250000 0  650000 1250000 0  700000 1250000 0  750000 1250000 0  800000 1250000 0  850000 1250000 0  900000 1250000 0  950000 1250000 0  1000000 1250000 0  0 1300000 0  50000 1300000 0  100000 1300000 0  150000 1300000 0  200000 1300000 0  250000 1300000 0  300000 1300000 0  350000 1300000 0  400000 1300000 0  450000 1300000 0  500000 1300000 0  550000 1300000 0  600000 1300000 0  650000 1300000 0  700000 1300000 0  750000 1300000 0  800000 1300000 0  850000 1300000 0  900000 1300000 0  950000 1300000 0  1000000 1300000 0  0 1350000 0  50000 1350000 0  100000 1350000 0  150000 1350000 0  200000 1350000 0  250000 1350000 0  300000 1350000 0  350000 1350000 0  400000 1350000 0  450000 1350000 0  500000 1350000 0  550000 1350000 0  600000 1350000 0  650000 1350000 0  700000 135
[...]
<PointData  Scalars="f_1511"> 
<DataArray  type="Float64"  Name="f_1511"  format="ascii">-8.0503095951460377e+00  -8.0496076730418054e+00  -8.0461319593125484e+00  -8.0398722104895608e+00  -8.0309914716657627e+00  -8.0197265655365015e+00  -8.0063771176690235e+00  -7.9912970416467592e+00  -7.9748850744984159e+00  -7.9575741761713852e+00  -7.9398200592798940e+00  -7.9220891599477206e+00  -7.9048463625525613e+00  -7.8885427943665842e+00  -7.8736040182358753e+00  -7.8604189974754046e+00  -7.8493303817954416e+00  -7.8406272104795027e+00  -7.8345417907992161e+00  -7.8312383885856125e+00  -7.8305269550421928e+00  -8.0509762572129286e+00  -8.0502902666217526e+00  -8.0467645543067956e+00  -8.0404634548591130e+00  -8.0315368487459526e+00  -8.0202170991043182e+00  -8.0068027283640060e+00  -7.9916481834889259e+00  -7.9751535671649822e+00  -7.9577536698082296e+00  -7.9399063098882898e+00  -7.9220801821941365e+00  -7.9047424835418187e+00  -7.8883466100623627e+00  -7.8733202305749224e+00  -7.8600540434559978e+00  -7.8488914842309834e+00  -7.8401193224752337e+00  -7.8339572873143357e+00  -7.8305366312779121e+00  -7.8298253004618470e+00  -8.0542410874680535e+00  -8.0536039633023417e+00  -8.0499975780636444e+00  -8.0435063575666721e+00  -8.0343099909713427e+00  -8.0226527577443356e+00  -8.0088421954068760e+00  -7.9932422879204070e+00  -7.9762639385641991e+00  -7.9583538817882022e+00  -7.9399826752188920e+00  -7.9216321605064701e+00  -7.9037827035040991e+00  -7.8869005139578610e+00  -7.8714253537135983e+00  -7.8577589633000677e+00  -7.8462545696932384e+00  -7.8372078426023819e+00  -7.8308492996491825e+00  -7.8273347341259178e+00  -7.8266986131451439e+00  -8.0600620706068522e+00  -8.0594327523007863e+00  -8.0556917870801339e+00  -8.0488922660896360e+00  -8.0392322024173879e+00  -8.0269784844359933e+00  -8.0124591865142030e+00  -7.9960587657479039e+00  -7.9782096279870043e+00  -7.9593812435551143e+00  -7.9400678806904503e+00  -7.9207756040116761e+00  -7.9020089813058698e+00  -7.8842578682279223e+00  -7.8679846382148542e+00  -7.8536122757028446e+00  -7.8415138530908104e+00  -7.8320039651613920e+00  -7.8253318122679021e+00  -7.8216682261523101e+00  -7.8210320795061756e+00  -8.0683466126705756e+00  -8.0676997234354371e+00  -8.0637463660702178e+00  -8.0565124750581774e+00  -8.0462036699883726e+00  -8.0331098296904262e+00  -8.0175867889553363e+00  -8.0000489332718470e+00  -7.9809604181681637e+00  -7.9608240673123021e+00  -7.9401686784779955e+00  -7.9195354325063922e+00  -7.8994639297790386e+00  -7.8804782901012675e+00  -7.8630737387806109e+00  -7.8477041433754886e+00  -7.8347710104834389e+00  -7.8246142240849625e+00  -7.8175029254697987e+00  -7.8136149583144849e+00  -7.8129433375658266e+00  -8.0790412455604557e+00  -8.0783578154239493e+00  -8.0741111408231525e+00  -8.0663090735618042e+00  -8.0551648940680103e+00  -8.0409921279078294e+00  -8.0241791538673546e+00  -8.0051779811866712e+00  -7.9844937530559319e+00  -7.9626726663696505e+00  -7.9402884522886463e+00  -7.9179279482390825e+00  -7.8961762660858881e+00  -7.8756020055986582e+00  -7.8567429460233065e+00  -7.8400926583382446e+00  -7.8260884252870122e+00  -7.8151003646730750e+00  -7.8074192148361448e+00  -7.8032294379436831e+00  -7.8025031674540539e+00  -8.0921287936811481e+00  -8.0913927208879421e+00  -8.0867725658717724e+00  -8.0782650247537120e+00  -8.0660952873444600e+00  -8.0506038985558170e+00  -8.0322167308586963e+00  -8.0114304109814505e+00  -7.9887995794591715e+00  -7.9649232438392827e+00  -7.9404300032830575e+00  -7.9159624818273233e+00  -7.8921613884068380e+00  -7.8696496084723933e+00  -7.8490167210703889e+00  -7.8308043216709056e+00  -7.8154924112927944e+00  -7.8034864946803575e+00  -7.7951023883947101e+00  -7.7905344814287449e+00  -7.7897391939185328e+00  -8.1076209130564774e+00  -8.1068173097575684e+00  -8.1017442561749125e+00  -8.0923918049121415e+00  -8.0790025535389898e+00  -8.0619493112186476e+00  -8.0417013723703388e+00  -8.0188071238455922e+00  -7.9938789741145468e+00  -7.9675778125731487e+00  -7.9405966480655010e+00  -7.9136436341852612e+00  -7.8874247964193085e+00  -7.8626267827408762e+00  -7.8398999568855938e+00  -7.8198421394375934e+00  -7.8029831722553835e+00  -7.7897698394050883e+00  -7.7805479324339357e+00  -7.7755262978220330e+00  -7.7746490510704920e+00  -8.1255498167415237e+00  -8.1246641958738461e+00  -8.1190586330724805e+00  -8.1087195165579100e+00  -8.0939126257791312e+00  -8.0750493717187712e+00  -8.0526493662337124e+00  -8.0273203985314119e+00  -7.9997410112355372e+00  -7.9706428862330423e+00  -7.9407926856599520e+00  -7.9109734858623186e+00  -7.8819660168317078e+00  -7.8545299179167802e+00  -7.8293852261915502e+00  -7.8071943214928536e+00  -7.7885444554108725e+00  -7.7739303717565091e+00  -7.7637336549518947e+00  -7.7581824719359211e+00  -7.7572107280326108e+00  -8.1459594228355101e+00  -8.1449772453332407e+00  -8.1387584163711839e+00  -8.1272878774743802e+00  -8.1108604951006633e+00  -8.0899333705694385e+00  -8.0650841651764740e+00  -8.0369882994170325e+00  -8.0063990558559031e+00  -7.9741277549310627e+00  -7.9410236829824523e+00  -7.9079538627017882e+00  -7.8757827627288730e+00  -7.8453520109224444e+00  -7.8174601882042118e+00  -7.7928428278815520e+00  -7.7721527123443312e+00  -7.7559399828781732e+00  -7.7446285341774725e+00  -7.7384708991259465e+00  -7.7373921437457902e+00  -8.1688955952039386e+00  -8.1678019812727403e+00  -8.1608872279485727e+00  -8.1481368230886151e+00  -8.1298809401146173e+00  -8.1066301839469705e+00  -8.0790288009218116e+00  -8.0478286719058438e+00  -8.0138666804608611e+00  -7.9780425339049472e+00  -7.9412967456677066e+00  -7.9045888039298537e+00  -7.8688754632777247e+00  -7.8350890157155710e+00  -7.8041154167020785e+00  -7.7767722484868358e+00  -7.7537865629391138e+00  -7.7357721351380153e+00  -7.7232024122462208e+00  -7.7163596702028414e+00  -7.7151612356818795e+00  -8.1943950338836729e+00  -8.1931745586155689e+00  -8.1854787728479348e+00  -8.1712958881136348e+00  -8.1509982477301453e+00  -8.1251586895552883e+00  -8.0944974837452932e+00  -8.0598524257290602e+00  -8.0221530539101344e+00  -7.9823959511349472e+00  -7.9416208436834461e+00  -7.9008874028194658e+00  -7.8612524393768002e+00  -7.8237470354558827e+00  -7.7893531853306346e+00  -7.7589797048194660e+00  -7.7334373585736138e+00  -7.7134127479429964e+00  -7.6994370561589758e+00  -7.6918283075569631e+00  -7.6904972818601474e+00  -8.2224723117275165e+00  -8.2211088460096882e+00  -8.2125440753425529e+00  -8.1967716847266257e+00  -8.1742141425934776e+00  -8.1455165403032890e+00  -8.1114857522583979e+00  -8.0730556337962796e+00  -8.0312575022242942e+00  -7.9871927441151547e+00  -7.9420072294306996e+00  -7.8968672209986321e+00  -7.8529360834963926e+00  -7.8113508624142245e+00  -7.7731978431559652e+00  -7.7394864960456697e+00  -7.7111215851440527e+00  -7.6888729823171387e+00  -7.6733391279953507e+00  -7.6648808542414013e+00  -7.6634040301453039e+00  -8.2531044922603130e+00  -8.2515810618430887e+00  -8.2420561812915523e+00  -8.2245327904851813e+00  -8.1994931535657027e+00  -8.1676665121123655e+00  -8.1299584636045434e+00  -8.0874098775563592e+00  -8.0411628544227867e+00  -7.9924304826823978e+00  -7.9424699764487130e+00  -7.8925585121383666e+00  -7.8439704723014438e+00  -7.7979544591267889e+00  -7.7557084948725095e+00  -7.7183522632666843e+00  -7.6868958671050631e+00  -7.6622046111458362e+00  -7.6449556641167629e+00  -7.6355613813922352e+00  -7.6339252144631402e+00  -8.2862126937862985e+00  -8.2845113276423508e+00  -8.2739316411373753e+00  -8.2544912703315187e+00  -8.2267445624017945e+00  -8.1915195542180683e+00  -8.1498348199053314e+00  -8.1028501798532080e+00  -8.0518271159295196e+00  -7.9980955952252470e+00  -7.9430266647475571e+00  -7.8880095274424402e+00  -7.8344309123595366e+00  -7.7836540715696039e+00  -7.7369948086018852e+00  -7.6956925515298398e+00  -7.6608754296388444e+00  -7.6335187526272401e+00  -7.6143927515387313e+00  -7.6039725523120749e+00  -7.6021630929361113e+00  -8.3216398813712313e+00  -8.3197414084541403e+00  -8.3080079635382447e+00  -8.2864799091616828e+00  -8.2557999241168556e+00  -8.2169135222414766e+00  -8.1709694991683737e+00  -8.1192597676203935e+00  -8.0631729459585468e+00  -8.0041583421845672e+00  -7.9436992380028082e+00  -7.8832932091625292e+00  -7.8244359908543952e+00  -7.7686047753680061e+00  -7.7172369173049979e+00  -7.6717008114083116e+00  -7.6332570396638975e+00  -7.6030088925451569e+00  -7.5818382109021591e+00  -7.5702979743351868e+00  -7.5683007256605199e+00  -8.3591240621281262e+00  -8.3570077912967893e+00  -8.3440160634925160e+00  -8.3202240203925051e+00  -8.2863849246362395e+00  -8.2435863759369568e+00  -8.1931288114113379e+00  -8.1364508148420160e+00  -8.0750743671505489e+00  -8.0105664596120274e+00  -7.9445150537267279e+00  -7.8785155946900662e+00  -7.8141627552646939e+00  -7.7530413617797080e+00  -7.6967105471959183e+00  -7.6466760992249343e+00  -7.6043476819902978e+00  -7.5709793360618658e+00  -7.5475892639366950e+00  -7.5348291946925308e+00  -7.5326288245285777e+00  -8.3982659110342688e+00  -8.3959090856659948e+00  -8.3815464894181186e+00  -8.3553063946032182e+00  -8.3180840404912146e+00  -8.2711423915553457e+00  -8.2159606719656395e+00  -8.1541402790177600e+00  -8.0873401471261293e+00  -8.0172372080668435e+00  -7.9455081340767668e+00  -7.8738262208019654e+00  -7.8038656309166310e+00  -7.7373045239133988e+00  -7.6758186665099153e+00  -7.6210580006603550e+00  -7.5746005522523401e+00  -7.5378805434354126e+00  -7.5120864113861545e+00  -7.4979983793664760e+00  -7.4955781760831570e+00  -8.4384896249642640e+00  -8.4358664678867470e+00  -8.4200078390129232e+00  -8.3911235049536259e+00  -8.3502960702801836e+00  -8.2990097105442775e+00  -8.2389571563090893e+00  -8.1719200616636041e+00  -8.0996934471914734e+00  -8.0240476521943371e+00  -7.9467205926061428e+00  -7.8694306747786857e+00  -7.7938995088150032e+00  -7.7218732060909803e+00  -7.6551310288537815e+00  -7.5954705959324631e+00  -7.5446603956518334e+00  -7.5043532799905757e+00  -7.4759551396581347e+00  -7.4604180054062885e+00  -7.4577589080310762e+00  -8.4789954130488692e+00  -8.4760754404029690e+00  -8.4585751415263868e+00  -8.4268303904890978e+00  -8.3821781000955351e+00  -8.3263874108714173e+00  -8.2614086420271029e+00  -8.1892211843398375e+00  -8.1117477868545933e+00  -8.0308232421991050e+00  -7.9482041454704904e+00  -7.8656050800230579e+00  -7.7847469259681468e+00  -7.7074035387392135e+00  -7.6354328358376646e+00  -7.5707775468535781e+00  -7.5154208380668850e+00  -7.4712842675414066e+00  -7.4400577375229764e+00  -7.4229293981809041e+00  -7.4200083345633159e+00  -8.5187013269444343e+00  -8.5154463484170879e+00  -8.4961248505574201e+00  -8.4612705143171087e+00  -8.4125748500984692e+00  -8.3521804519942542e+00  -8.2823493826128622e+00  -8.2052728147325720e+00  -8.1229803823625790e+00  -8.0373252973993523e+00  -7.9500214907174840e+00  -7.8627115559368859e+00  -7.7770481223615615e+00  -7.6947736458275653e+00  -7.6177830559714712e+00  -7.5481504630903462e+00  -7.4880972005433000e+00  -7.4398772798740520e+00  -7.4055586880611148e+00  -7.3866628551658344e+00  -7.3834499601530785e+00  -8.5561708108587098e+00  -8.5525294965435474e+00  -8.5311509646527117e+00  -8.4928850405642375e+00  -8.4399297351933473e+00  -8.3749217806469218e+00  -8.3004964180440819e+00  -8.2190593709067326e+00  -8.1327058791598024e+00  -8.0432389894377554e+00  -7.9522471252034714e+00  -7.8612123035871520e+00  -7.7716305280759368e+00  -7.6851311661655348e+00  -7.6035811007702803e+00  -7.5291522167326486e+00  -7.4643193827313272e+00  -7.4117457707540257e+00  -7.3740093090150713e+00  -7.3531138190088123e+00  -7.3495678158551732e+00  -8.5895198054252972e+00  -8.5854174841936324e+00  -8.5616526665029458e+00  -8.5195929560349892e+00  -8.4621738158938644e+00  -8.3926836405091798e+00  -8.3141881401293851e+00  -8.2292834501844467e+00  -8.1400569368056086e+00  -8.0481651118728710e+00  -7.9549668372571647e+00  -7.8616776379926927e+00  -7.7695302603002716e+00  -7.6799355606352613e+00  -7.5946363906435304e+00  -7.5158349036565060e+00  -7.4462505716744838e+00  -7.3890368389022179e+00  -7.3474615895817017e+00  -7.3242429334043866e+00  -7.3203034094092221e+00  -8.6162922563841757e+00  -8.6116105461055223e+00  -8.5849756783962992e+00  -8.5386289003443316e+00  -8.4765906220577651e+00  -8.4029869734353113e+00  -8.3213375211294913e+00  -8.2343501216593964e+00  -8.1439835418886783e+00  -8.0516214635818724e+00  -7.9582746725027409e+00  -7.8647798105437392e+00  -7.7719917894675659e+00  -7.6809786773299980e+00  -7.5932266033579667e+00  -7.5108465034598897e+00  -7.4367378654661334e+00  -7.3746026916172847e+00  -7.3286297572666790e+00  -7.3026146891068073e+00  -7.2981888515448494e+00  -8.6332829492404439e+00  -8.6278152107535515e+00  -8.5975731535655218e+00  -8.5463202559830496e+00  -8.4796630339988983e+00  -8.4027334065687516e+00  -8.3194308711437284e+00  -8.2324001935967193e+00  -8.1432902923389570e+00  -8.0530628797513746e+00  -7.9622657317316907e+00  -7.8712601432334921e+00  -7.7804228681308123e+00  -7.6903528498933671e+00  -7.6021130817431093e+00  -7.5175257335951429e+00  -7.4394969742573309e+00  -7.3722459995297767e+00  -7.3211360312162466e+00  -7.2916042013418760e+00  -7.2865430811425300e+00  -8.6362662750498984e+00  -8.6296085630549086e+00  -8.5946202540568351e+00  -8.5377855282739414e+00  -8.4669349267184177e+00  -8.3882173943661034e+00  -8.3056291616363183e+00  -8.2214358235698253e+00  -8.1367384607878304e+00  -8.0519316847523434e+00  -7.9670230039746315e+00  -7.8818534350289884e+00  -7.7962718981113355e+00  -7.7103154796060362e+00  -7.6244499405228989e+00  -7.5399289793454578e+00  -7.4593131539495374e+00  -7.3870786175004124e+00  -7.3299159083188181e+00  -7.2957364625531822e+00  -7.2897887484837058e+00  -8.6195441886278079e+00  -8.6107991710139409e+00  -8.5693641863684942e+00  -8.5065705655922610e+00  -8.4329937938266699e+00  -8.3553394196059863e+00  -8.2770649670279575e+00  -8.1995954113438199e+00  -8.1232417000070090e+00  -8.0477495222304167e+00  -7.9725968627387651e+00  -7.8971546290382371e+00  -7.8207906703463799e+00  -7.7429780939158608e+00  -7.6634724437378035e+00  -7.5826520022597848e+00  -7.5021658242306932e+00  -7.4260299035064357e+00  -7.3619448477296086e+00  -7.3213140870876261e+00  -7.3140259425741778e+00  -8.5750863927480871e+00  -8.5620374997372029e+00  -8.5120574583243815e+00  -8.4444047755366149e+00  -8.3718570630422811e+00  -8.3002409258767713e+00  -8.2314574513185672e+00  -8.1656276779187511e+00  -8.1021680281812731e+00  -8.0402506810613232e+00  -7.9789760336665507e+00  -7.9174237261351177e+00  -7.8546603169209863e+00  -7.7897472594300403e+00  -7.7217951833333442e+00  -7.6501540081220973e+00  -7.5749466781278665e+00  -7.4984027659301296e+00  -7.4276178032404765e+00  -7.3777714047396632e+00  -7.3682340888025175e+00  -8.4903825184151742e+00  -8.4675486315913062e+00  -8.4086092217411803e+00  -8.3418206614774491e+00  -8.2783810552425532e+00  -8.2206678630023440e+00  -8.1681285481759822e+00  -8.1195450494178818e+00  -8.0737028940900668e+00  -8.0295236101514949e+00  -7.9860419995587124e+00  -7.9423454167995242e+00  -7.8975050325158884e+00  -7.8505038458962808e+00  -7.8001651176436546e+00  -7.7451091733594293e+00  -7.6838642762049112e+00  -7.6156024768605199e+00  -7.5430979481789802e+00  -7.4812385182773191e+00  -7.4672825786142942e+00  -8.3402179857208996e+00  -8.2978168329452533e+00  -8.2410483383860313e+00  -8.1917795814986825e+00  -8.1516330288700072e+00  -8.1181873435114102e+00  -8.0892314901679594e+00  -8.0632188444121962e+00  -8.0390810302809506e+00  -8.0160342243043274e+00  -7.9934472321231311e+00  -7.9707514181831369e+00  -7.9473684698183789e+00  -7.9226355865004559e+00  -7.8957056315461145e+00  -7.8653889608325596e+00  -7.8298873548176520e+00  -7.7864121292122359e+00  -7.7312482294131613e+00  -7.6653078954163529e+00  -7.6418883861965625e+00  -8.0000000000000000e+00  -8.0000000000000000e+00  -8.0000000000000000e+00  -8.0000000000000000e+00  -8.0000000000000000e+00  -8.0000000000000000e+00  -8.0000000000000000e+00  -8.0000000000000000e+00  -8.0000000000000000e+00  -8.0000000000000000e+00  -8.0000000000000000e+00  -8.0000000000000000e+00  -8.0000000000000000e+00  -8.0000000000000000e+00  -8.0000000000000000e+00  -8.0000000000000000e+00  -8.0000000000000000e+00  -8.0000000000000000e+00  -8.0000000000000000e+00  -8.0000000000000000e+00  -8.0000000000000000e+00  </DataArray> 
</PointData> 
</Piece>
</UnstructuredGrid>
</VTKFile>