<?xml version="1.0"?>
<VTKFile type="UnstructuredGrid"  version="0.1"  >
<UnstructuredGrid>
<Piece  NumberOfPoints="651" NumberOfCells="1200">
<Points>
<DataArray  type="Float64"  NumberOfComponents="3"  format="ascii">0 0 0  50000 0 0  100000 0 0  150000 0 0  200000 0 0  250000 0 0  300000 0 0  350000 0 0  400000 0 0  450000 0 0  500000 0 0  550000 0 0  600000 0 0  650000 0 0  700000 0 0  750000 0 0  800000 0 0  850000 0 0  900000 0 0  950000 0 0  1000000 0 0  0 50000 0  50000 50000 0  100000 50000 0  150000 50000 0  200000 50000 0  250000 50000 0  300000 50000 0  350000 50000 0  400000 50000 0  450000 50000 0  500000 50000 0  550000 50000 0  600000 50000 0  650000 50000 0  700000 50000 0  750000 50000 0  800000 50000 0  850000 50000 0  900000 50000 0  950000 50000 0  1000000 50000 0  0 100000 0  50000 100000 0  100000 100000 0  150000 100000 0  200000 100000 0  250000 100000 0  300000 100000 0  350000 100000 0  400000 100000 0  450000 100000 0  500000 100000 0  550000 100000 0  600000 100000 0  650000 100000 0  700000 100000 0  750000 100000 0  800000 100000 0  850000 100000 0  900000 100000 0  950000 100000 0  1000000 100000 0  0 150000 0  50000 150000 0  100000 150000 0  150000 150000 0  200000 150000 0  250000 150000 0  300000 150000 0  350000 150000 0  400000 150000 0  450000 150000 0  500000 150000 0  550000 150000 0  600000 150000 0  650000 150000 0  700000 150000 0  750000 150000 0  800000 150000 0  850000 150000 0  900000 150000 0  950000 150000 0  1000000 150000 0  0 200000 0  50000 200000 0  100000 200000 0  150000 200000 0  200000 200000 0  250000 200000 0  300000 200000 0  350000 200000 0  400000 200000 0  450000 200000 0  500000 200000 0  550000 200000 0  600000 200000 0  650000 200000 0  700000 200000 0  750000 200000 0  800000 200000 0  850000 200000 0  900000 200000 0  950000 200000 0  1000000 200000 0  0 250000 0  50000 250000 0  100000 250000 0  150000 250000 0  200000 250000 0  250000 250000 0  300000 250000 0  350000 250000 0  400000 250000 0  450000 250000 0  500000 250000 0  550000 250000 0  600000 250000 0  650000 250000 0  700000 250000 0  750000 250000 0  800000 250000 0  850000 250000 0  900000 250000 0  950000 250000 0  1000000 250000 0  0 300000 0  50000 300000 0  100000 300000 0  150000 300000 0  200000 300000 0  250000 300000 0  300000 300000 0  350000 300000 0  400000 300000 0  450000 300000 0  500000 300000 0  550000 300000 0  600000 300000 0  650000 300000 0  700000 300000 0  750000 300000 0  800000 300000 0  850000 300000 0  900000 300000 0  950000 300000 0  1000000 300000 0  0 350000 0  50000 350000 0  100000 350000 0  150000 350000 0  200000 350000 0  250000 350000 0  300000 350000 0  350000 350000 0  400000 350000 0  450000 350000 0  500000 350000 0  550000 350000 0  600000 350000 0  650000 350000 0  700000 350000 0  750000 350000 0  800000 350000 0  850000 350000 0  900000 350000 0  950000 350000 0  1000000 350000 0  0 400000 0  50000 400000 0  100000 400000 0  150000 400000 0  200000 400000 0  250000 400000 0  300000 400000 0  350000 400000 0  400000 400000 0  450000 400000 0  500000 400000 0  550000 400000 0  600000 400000 0  650000 400000 0  700000 400000 0  750000 400000 0  800000 400000 0  850000 400000 0  900000 400000 0  950000 400000 0  1000000 400000 0  0 450000 0  50000 450000 0  100000 450000 0  150000 450000 0  200000 450000 0  250000 450000 0  300000 450000 0  350000 450000 0  400000 450000 0  450000 450000 0  500000 450000 0  550000 450000 0  600000 450000 0  650000 450000 0  700000 450000 0  750000 450000 0  800000 450000 0  850000 450000 0  900000 450000 0  950000 450000 0  1000000 450000 0  0 500000 0  50000 500000 0  100000 500000 0  150000 500000 0  200000 500000 0  250000 500000 0  300000 500000 0  350000 500000 0  400000 500000 0  450000 500000 0  500000 500000 0  550000 500000 0  600000 500000 0  650000 500000 0  700000 500000 0  750000 500000 0  800000 500000 0  850000 500000 0  900000 500000 0  950000 500000 0  1000000 500000 0  0 550000 0  50000 550000 0  100000 550000 0  150000 550000 0  200000 550000 0  250000 550000 0  300000 550000 0  350000 550000 0  400000 550000 0  450000 550000 0  500000 550000 0  550000 550000 0  600000 550000 0  650000 550000 0  700000 550000 0  750000 550000 0  800000 550000 0  850000 550000 0  900000 550000 0  950000 550000 0  1000000 550000 0  0 600000 0  50000 600000 0  100000 600000 0  150000 600000 0  200000 600000 0  250000 600000 0  300000 600000 0  350000 600000 0  400000 600000 0  450000 600000 0  500000 600000 0  550000 600000 0  600000 600000 0  650000 600000 0  700000 600000 0  750000 600000 0  800000 600000 0  850000 600000 0  900000 600000 0  950000 600000 0  1000000 600000 0  0 650000 0  50000 650000 0  100000 650000 0  150000 650000 0  200000 650000 0  250000 650000 0  300000 650000 0  350000 650000 0  400000 650000 0  450000 650000 0  500000 650000 0  550000 650000 0  600000 650000 0  650000 650000 0  700000 650000 0  750000 650000 0  800000 650000 0  850000 650000 0  900000 650000 0  950000 650000 0  1000000 650000 0  0 700000 0  50000 700000 0  100000 700000 0  150000 700000 0  200000 700000 0  250000 700000 0  300000 700000 0  350000 700000 0  400000 700000 0  450000 700000 0  500000 700000 0  550000 700000 0  600000 700000 0  650000 700000 0  700000 700000 0  750000 700000 0  800000 700000 0  850000 700000 0  900000 700000 0  950000 700000 0  1000000 700000 0  0 750000 0  50000 750000 0  100000 750000 0  150000 750000 0  200000 750000 0  250000 750000 0  300000 750000 0  350000 750000 0  400000 750000 0  450000 750000 0  500000 750000 0  550000 750000 0  600000 750000 0  650000 750000 0  700000 750000 0  750000 750000 0  800000 750000 0  850000 750000 0  900000 750000 0  950000 750000 0  1000000 750000 0  0 800000 0  50000 800000 0  100000 800000 0  150000 800000 0  200000 800000 0  250000 800000 0  300000 800000 0  350000 800000 0  400000 800000 0  450000 800000 0  500000 800000 0  550000 800000 0  600000 800000 0  650000 800000 0  700000 800000 0  750000 800000 0  800000 800000 0  850000 800000 0  900000 800000 0  950000 800000 0  1000000 800000 0  0 850000 0  50000 850000 0  100000 850000 0  150000 850000 0  200000 850000 0  250000 850000 0  300000 850000 0  350000 850000 0  400000 850000 0  450000 850000 0  500000 850000 0  550000 850000 0  600000 850000 0  650000 850000 0  700000 850000 0  750000 850000 0  800000 850000 0  850000 850000 0  900000 850000 0  950000 850000 0  1000000 850000 0  0 900000 0  50000 900000 0  100000 900000 0  150000 900000 0  200000 900000 0  250000 900000 0  300000 900000 0  350000 900000 0  400000 900000 0  450000 900000 0  500000 900000 0  550000 900000 0  600000 900000 0  650000 900000 0  700000 900000 0  750000 900000 0  800000 900000 0  850000 900000 0  900000 900000 0  950000 900000 0  1000000 900000 0  0 950000 0  50000 950000 0  100000 950000 0  150000 950000 0  200000 950000 0  250000 950000 0  300000 950000 0  350000 950000 0  400000 950000 0  450000 950000 0  500000 950000 0  550000 950000 0  600000 950000 0  650000 950000 0  700000 950000 0  750000 950000 0  800000 950000 0  850000 950000 0  900000 950000 0  950000 950000 0  1000000 950000 0  0 1000000 0  50000 1000000 0  100000 1000000 0  150000 1000000 0  200000 1000000 0  250000 1000000 0  300000 1000000 0  350000 1000000 0  400000 1000000 0  450000 1000000 0  500000 1000000 0  550000 1000000 0  600000 1000000 0  650000 1000000 0  700000 1000000 0  750000 1000000 0  800000 1000000 0  850000 1000000 0  900000 1000000 0  950000 1000000 0  1000000 1000000 0  0 1050000 0  50000 1050000 0  100000 1050000 0  150000 1050000 0  200000 1050000 0  250000 1050000 0  300000 1050000 0  350000 1050000 0  400000 1050000 0  450000 1050000 0  500000 1050000 0  550000 1050000 0  600000 1050000 0  650000 1050000 0  700000 1050000 0  750000 1050000 0  800000 1050000 0  850000 1050000 0  900000 1050000 0  950000 1050000 0  1000000 1050000 0  0 1100000 0  50000 1100000 0  100000 1100000 0  150000 1100000 0  200000 1100000 0  250000 1100000 0  300000 1100000 0  350000 1100000 0  400000 1100000 0  450000 1100000 0  500000 1100000 0  550000 1100000 0  600000 1100000 0  650000 1100000 0  700000 1100000 0  750000 1100000 0  800000 1100000 0  850000 1100000 0  900000 1100000 0  950000 1100000 0  1000000 1100000 0  0 1150000 0  50000 1150000 0  100000 1150000 0  150000 1150000 0  200000 1150000 0  250000 1150000 0  300000 1150000 0  350000 1150000 0  400000 1150000 0  450000 1150000 0  500000 1150000 0  550000 1150000 0  600000 1150000 0  650000 1150000 0  700000 1150000 0  750000 1150000 0  800000 1150000 0  850000 1150000 0  900000 1150000 0  950000 1150000 0  1000000 1150000 0  0 1200000 0  50000 1200000 0  100000 1200000 0  150000 1200000 0  200000 1200000 0  250000 1200000 0  300000 1200000 0  350000 1200000 0  400000 1200000 0  450000 1200000 0  500000 1200000 0  550000 1200000 0  600000 1200000 0  650000 1200000 0  700000 1200000 0  750000 1200000 0  800000 1200000 0  850000 1200000 0  900000 1200000 0  950000 1200000 0  1000000 1200000 0  0 1250000 0  50000 1250000 0  100000 1250000 0  150000 1250000 0  200000 1250000 0  250000 1250000 0  300000 1250000 0  350000 1250000 0  400000 1250000 0  450000 1250000 0  500000 1250000 0  550000 1250000 0  600000 1250000 0  650000 1250000 0  700000 1250000 0  750000 1250000 0  800000 1250000 0  850000 1250000 0  900000 1250000 0  950000 1250000 0  1000000 1250000 0  0 1300000 0  50000 1300000 0  100000 1300000 0  150000 1300000 0  200000 1300000 0  250000 1300000 0  300000 1300000 0  350000 1300000 0  400000 1300000 0  450000 1300000 0  500000 1300000 0  550000 1300000 0  600000 1300000 0  650000 1300000 0  700000 1300000 0  750000 1300000 0  800000 1300000 0  850000 1300000 0  900000 1300000 0  950000 1300000 0  1000000 1300000 0  0 1350000 0  50000 1350000 0  100000 1350000 0  150000 1350000 0  200000 1350000 0  250000 1350000 0  300000 1350000 0  350000 1350000 0  400000 1350000 0  450000 1350000 0  500000 1350000 0  550000 1350000 0  600000 1350000 0  650000 1350000 0  700000 135
[...]
<PointData  Scalars="f_1511"> 
<DataArray  type="Float64"  Name="f_1511"  format="ascii">-8.0312166189091290e+00  -8.0307806868014477e+00  -8.0286300300658393e+00  -8.0247579865881065e+00  -8.0192648343034438e+00  -8.0122966523353423e+00  -8.0040385357827883e+00  -7.9947093111573295e+00  -7.9845556581707537e+00  -7.9738455253181266e+00  -7.9628610041032974e+00  -7.9518908548377780e+00  -7.9412228786851049e+00  -7.9311363328046092e+00  -7.9218945929004256e+00  -7.9137382954863611e+00  -7.9068792985620444e+00  -7.9014961326187727e+00  -7.8977320119436989e+00  -7.8956878081451443e+00  -7.8952468363553709e+00  -8.0316336250175393e+00  -8.0312072498569247e+00  -8.0290256143957297e+00  -8.0251277712288651e+00  -8.0196059232798618e+00  -8.0126034216787456e+00  -8.0043046988107438e+00  -7.9949289249503659e+00  -7.9847236365139302e+00  -7.9739579260643261e+00  -7.9629151998624517e+00  -7.9518856278320751e+00  -7.9411584541302398e+00  -7.9310143517962093e+00  -7.9217180112583314e+00  -7.9135111539691385e+00  -7.9066061372584953e+00  -7.9011801144160838e+00  -7.8973686102408314e+00  -7.8952523286177136e+00  -7.8948113363813359e+00  -8.0336564928878929e+00  -8.0332596555078517e+00  -8.0310276730569736e+00  -8.0270120425381730e+00  -8.0213232099933212e+00  -8.0141118413111894e+00  -8.0055679283017760e+00  -7.9959165369941889e+00  -7.9854118855507075e+00  -7.9743304573388798e+00  -7.9629635423090601e+00  -7.9516094468984058e+00  -7.9405655656478595e+00  -7.9301205016930369e+00  -7.9205464286693896e+00  -7.9120918990724673e+00  -7.9049753238375891e+00  -7.8993793503191512e+00  -7.8954461420208908e+00  -7.8932714752261237e+00  -7.8928762537856336e+00  -8.0372598062410923e+00  -8.0368672270644232e+00  -8.0345513258158210e+00  -8.0303446023778271e+00  -8.0243687813267854e+00  -8.0167884143192918e+00  -8.0078061364605357e+00  -7.9976596441118071e+00  -7.9866164373043329e+00  -7.9749670522362965e+00  -7.9630174390406685e+00  -7.9510808834055489e+00  -7.9394697464656865e+00  -7.9284872526010375e+00  -7.9184195534270758e+00  -7.9095283272270072e+00  -7.9020442356673284e+00  -7.8961615930578732e+00  -7.8920340679783614e+00  -7.8897667270113958e+00  -7.8893710862700619e+00  -8.0423873433839734e+00  -8.0419833475010325e+00  -8.0395353763078088e+00  -8.0350594463308251e+00  -8.0286820467172042e+00  -8.0205818957954769e+00  -8.0109787358582700e+00  -8.0001287282176268e+00  -7.9883189806961470e+00  -7.9758606408174977e+00  -7.9630810048824650e+00  -7.9503150714520636e+00  -7.9378968635900922e+00  -7.9261507902054991e+00  -7.9153833089124843e+00  -7.9058751784390706e+00  -7.8978746165378482e+00  -7.8915915418594214e+00  -7.8871919336608416e+00  -7.8847852567577146e+00  -7.8843673351623345e+00  -8.0490070013831758e+00  -8.0485798330082368e+00  -8.0459497345123374e+00  -8.0411217527379435e+00  -8.0342271881769634e+00  -8.0254593701511396e+00  -8.0150581258034936e+00  -8.0033028458137210e+00  -7.9905059598121211e+00  -7.9770054241918427e+00  -7.9631563175912046e+00  -7.9493218730519262e+00  -7.9358642595686346e+00  -7.9231353917128446e+00  -7.9114680361548508e+00  -7.9011674901784721e+00  -7.8925040741943100e+00  -7.8857063820704223e+00  -7.8809537497024902e+00  -7.8783598089974607e+00  -7.8779077034868283e+00  -8.0571090455096783e+00  -8.0566486979989076e+00  -8.0537868578914900e+00  -8.0485218128677243e+00  -8.0409922800912348e+00  -8.0314082979308719e+00  -8.0200328579092766e+00  -8.0071729194291006e+00  -7.9931715072926357e+00  -7.9783992326991813e+00  -7.9632451101331423e+00  -7.9481068818759049e+00  -7.9333811103648717e+00  -7.9194532902610861e+00  -7.9066882254684616e+00  -7.8954209084831319e+00  -7.8859480673344038e+00  -7.8785201703572785e+00  -7.8733320702549037e+00  -7.8705035961805176e+00  -7.8700083461386710e+00  -8.0667015198842691e+00  -8.0661987222057920e+00  -8.0630559477085502e+00  -8.0572674682288614e+00  -8.0489827887184546e+00  -8.0384318977492981e+00  -8.0259046290633886e+00  -8.0117399437428123e+00  -7.9963165927225095e+00  -7.9800434680313543e+00  -7.9633494371262250e+00  -7.9466727933186032e+00  -7.9304505198107735e+00  -7.9151075684150491e+00  -7.9010463526392769e+00  -7.8886366467603013e+00  -7.8782060045958398e+00  -7.8700304219206574e+00  -7.8643232946478516e+00  -7.8612134285008519e+00  -7.8606669424047171e+00  -8.0778051512957862e+00  -8.0772508698451624e+00  -8.0737778101384681e+00  -8.0673780416532939e+00  -8.0582154016970442e+00  -8.0465437407043652e+00  -8.0326840059594318e+00  -8.0170119014694468e+00  -7.9999470970717210e+00  -7.9819422968175777e+00  -7.9634719590882330e+00  -7.9450207590296626e+00  -7.9270719280827944e+00  -7.9100956037234509e+00  -7.8945373259872555e+00  -7.8808068227533656e+00  -7.8692671682593263e+00  -7.8602240237893861e+00  -7.8539129212599619e+00  -7.8504746297488879e+00  -7.8498690583793218e+00  -8.0904478884047304e+00  -8.0898330493170487e+00  -8.0859796082830950e+00  -8.0788787863772988e+00  -8.0687123844271547e+00  -8.0557624907928442e+00  -8.0403859535014508e+00  -8.0230003233481124e+00  -8.0040715316578392e+00  -7.9841015888267144e+00  -7.9636161172960600e+00  -7.9431517803719141e+00  -7.9232436704313134e+00  -7.9044126995141788e+00  -7.8871530429231260e+00  -7.8719197168066870e+00  -7.8591163526521592e+00  -7.8490828834334723e+00  -7.8420810029921837e+00  -7.8382665480157776e+00  -7.8375940502078612e+00  -8.1046588716530010e+00  -8.1039741834436931e+00  -8.0996890550517247e+00  -8.0917950812727799e+00  -8.0804958579382671e+00  -8.0661065381581452e+00  -8.0490251558635872e+00  -8.0297165846119967e+00  -8.0086985193114497e+00  -7.9865277129439551e+00  -7.9637863003621350e+00  -7.9410682303830269e+00  -7.9189657708949008e+00  -7.8980560013293566e+00  -7.8788872187542260e+00  -7.8619652504489741e+00  -7.8477397053676601e+00  -7.8365898896759187e+00  -7.8288081358616433e+00  -7.8245686626017923e+00  -7.8238212961692639e+00  -8.1204615593730658e+00  -8.1196973870883777e+00  -8.1149277175115326e+00  -8.1061458600593888e+00  -8.0935814398434367e+00  -8.0775880718772388e+00  -8.0586108223409791e+00  -8.0371677522045832e+00  -8.0138339432638226e+00  -7.9892261687490809e+00  -7.9639880446556948e+00  -7.9387756089570471e+00  -7.9142431410605685e+00  -7.8910289425970586e+00  -7.8697408179008761e+00  -7.8509411090259258e+00  -7.8351312605116323e+00  -7.8227356471808021e+00  -7.8140823027259625e+00  -7.8093675356404795e+00  -7.8085372010837144e+00  -8.1378656979115203e+00  -8.1370119647864030e+00  -8.1317031089301537e+00  -8.1219358530589520e+00  -8.1079707662660532e+00  -8.0902061257473630e+00  -8.0691405861162995e+00  -8.0453516908665712e+00  -8.0194775777535767e+00  -7.9921999730678657e+00  -7.9642282915464317e+00  -7.9362846553256992e+00  -7.9090894051332787e+00  -7.8833465314904245e+00  -7.8597284781529204e+00  -7.8388599537257742e+00  -7.8213006206892546e+00  -7.8075263956418333e+00  -7.7979069075861442e+00  -7.7926649194237685e+00  -7.7917433283257793e+00  -8.1568577850887678e+00  -8.1559038848976009e+00  -8.1499992031007338e+00  -8.1391462160006167e+00  -8.1236424173783757e+00  -8.1039381125719494e+00  -8.0805930570649167e+00  -8.0542510760810870e+00  -8.0256189608948993e+00  -7.9954476880115477e+00  -7.9645157186986779e+00  -7.9336139635858718e+00  -7.9035316164113905e+00  -7.8750418460604523e+00  -7.8488863697734192e+00  -7.8257582016696929e+00  -7.8062822586681122e+00  -7.7909935390967009e+00  -7.7803103724419307e+00  -7.7744873702547697e+00  -7.7734660189615470e+00  -8.1773896326212760e+00  -8.1763243347064947e+00  -8.1697649450270688e+00  -8.1577230644915275e+00  -8.1405407165283563e+00  -8.1187293068202973e+00  -8.0929185303852886e+00  -8.0638259055606838e+00  -8.0322322262827850e+00  -7.9989609524151462e+00  -7.9648611614093756e+00  -7.9307932699428010e+00  -7.8976161750357985e+00  -7.8661741655256261e+00  -7.8372819992477210e+00  -7.8117069190182660e+00  -7.7901469700656225e+00  -7.7732052677639993e+00  -7.7613577239969569e+00  -7.7548977652533271e+00  -7.7537678922832534e+00  -8.1993645810629037e+00  -8.1981759024612586e+00  -8.1909002545820986e+00  -8.1775633405494155e+00  -8.1585617756836921e+00  -8.1344796429202884e+00  -8.1060272729872391e+00  -8.0740040392494929e+00  -8.0392695684794582e+00  -8.0027213577198957e+00  -7.9652781395197954e+00  -7.9278676014797425e+00  -7.8914163016189081e+00  -7.8568392344297058e+00  -7.8250265567924737e+00  -7.7968254733803875e+00  -7.7730161104924198e+00  -7.7542808471382365e+00  -7.7411646730811903e+00  -7.7340091764148013e+00  -7.7327616736446334e+00  -8.2226208546133961e+00  -8.2212958584765286e+00  -8.2132389163540616e+00  -8.1984973062760478e+00  -8.1775360205239007e+00  -8.1510270727926191e+00  -8.1197747175022847e+00  -8.0846692402912748e+00  -8.0466529873167012e+00  -8.0066964960705018e+00  -7.9657835029040758e+00  -7.9249024865897955e+00  -7.8850414539722662e+00  -7.8471822223892840e+00  -7.8122905110381486e+00  -7.7812987270471714e+00  -7.7550793971635956e+00  -7.7344082828697847e+00  -7.7199147944788384e+00  -7.7120016341262474e+00  -7.7106268669192684e+00  -8.2469114508596100e+00  -8.2454359033654345e+00  -8.2365276000019634e+00  -8.2202667723962364e+00  -8.1972062413938982e+00  -8.1681265817504176e+00  -8.1339428132821237e+00  -8.0956461658220160e+00  -8.0542639626629349e+00  -8.0108350160183139e+00  -7.9663982002642388e+00  -7.9219904070045555e+00  -7.8786490651986192e+00  -7.8374139759288273e+00  -7.7993232539832462e+00  -7.7653987177877575e+00  -7.7366172571587137e+00  -7.7138662648845333e+00  -7.6978805690582357e+00  -7.6891424260292371e+00  -7.6876298937402980e+00  -8.2718798177335024e+00  -8.2702375883242674e+00  -8.2604000225499732e+00  -8.2424978913481191e+00  -8.2171999706551819e+00  -8.1854238195959876e+00  -8.1482167658943823e+00  -8.1066818286063747e+00  -8.0619308074372711e+00  -8.0150605769923331e+00  -7.9671481560518513e+00  -7.9192585831033089e+00  -7.8724588724177371e+00  -7.8278310989186615e+00  -7.7864776499839561e+00  -7.7495119563925012e+00  -7.7180289823926866e+00  -7.6930515897567915e+00  -7.6754492938046965e+00  -7.6658107582731425e+00  -7.6641484892009650e+00  -8.2970303278170974e+00  -8.2952023321127424e+00  -8.2843448711783498e+00  -8.2646669123580487e+00  -8.2369946712235986e+00  -8.2024222186958351e+00  -8.1621565453014640e+00  -8.1174233357504821e+00  -8.0694137275479036e+00  -8.0192647462218218e+00  -7.9680651992327807e+00  -7.9168779619928307e+00  -7.8667697895905686e+00  -7.8188401255486228e+00  -7.7742402503848007e+00  -7.7341736332162014e+00  -7.6998683347925718e+00  -7.6725137302266537e+00  -7.6531552771228419e+00  -7.6425279174284126e+00  -7.6407014321449802e+00  -8.3216921223670450e+00  -8.3196544441912970e+00  -8.3076654007876876e+00  -8.2860565973641247e+00  -8.2558738380706185e+00  -8.2184425714108915e+00  -8.1751630620642164e+00  -8.1273924188960578e+00  -8.0763882433727794e+00  -8.0232992101396317e+00  -7.9691879107509846e+00  -7.9150728147889300e+00  -7.8619785728996758e+00  -7.8109853463781764e+00  -7.7632675095270374e+00  -7.7201100742864091e+00  -7.6828887694212442e+00  -7.6529989999724775e+00  -7.6317204718145710e+00  -7.6199946365730913e+00  -7.6179852124688585e+00  -8.3449740750619554e+00  -8.3426945690856833e+00  -8.3294272993090210e+00  -8.3056998449417012e+00  -8.2728717308694222e+00  -8.2325746174805445e+00  -8.1864401870732895e+00  -8.1359587541713179e+00  -8.0824288442210257e+00  -8.0269682916058418e+00  -7.9705621248077172e+00  -7.9141294897091310e+00  -7.8585981448035795e+00  -7.8049783321002515e+00  -7.7544271998169387e+00  -7.7082904852249889e+00  -7.6681011226348188e+00  -7.6355080934326764e+00  -7.6121070688361954e+00  -7.5991384379318809e+00  -7.5969202275870451e+00  -8.3657070440348349e+00  -8.3631389632939328e+00  -8.3483888503912365e+00  -8.3223051931959997e+00  -8.2867043541972016e+00  -8.2436218977301312e+00  -8.1949565255924437e+00  -8.1423168723718025e+00  -8.0869968808357342e+00  -8.0300238133751378e+00  -7.9722406151722804e+00  -7.9144014237865514e+00  -7.8572709799928804e+00  -7.8017242430240987e+00  -7.7488416388691288e+00  -7.6999877990499588e+00  -7.6568473386182552e+00  -7.6213730860631008e+00  -7.5955882284689338e+00  -7.5811758177431852e+00  -7.5787110291042472e+00  -8.3823664851595776e+00  -8.3794357703301756e+00  -8.3629023340618094e+00  -8.3341560348813761e+00  -8.2956854147010866e+00  -8.2500453710870190e+00  -8.1994162453405561e+00  -8.1454762942894572e+00  -8.0894400631136865e+00  -8.0321659265079042e+00  -7.9742812267209127e+00  -7.9163053617177619e+00  -7.8587689770833888e+00  -7.8023346809367871e+00  -7.7479239222666996e+00  -7.6968449405695196e+00  -7.6508940123840725e+00  -7.6123639232968721e+00  -7.5838484539105897e+00  -7.5676984076763567e+00  -7.5649290398478284e+00  -8.3929623297127716e+00  -8.3895398466524380e+00  -8.3707654337482502e+00  -8.3389720676362220e+00  -8.2976310598054752e+00  -8.2499209671452221e+00  -8.1982580950831299e+00  -8.1442820183590374e+00  -8.0890155048297441e+00  -8.0330555147759561e+00  -7.9767424429986526e+00  -7.9203010524847990e+00  -7.8639656215091174e+00  -7.8081080413733455e+00  -7.7533876210538271e+00  -7.7009337906103648e+00  -7.6525470837382565e+00  -7.6108407663424220e+00  -7.5791362321378193e+00  -7.5608014583615670e+00  -7.5576344549802288e+00  -8.3948703957699227e+00  -8.3907040772839938e+00  -8.3689817470823300e+00  -8.3337217688286671e+00  -8.2897736358932068e+00  -8.2409467612471428e+00  -8.1897179927998422e+00  -8.1374922720891156e+00  -8.0849529576799988e+00  -8.0323454909347216e+00  -7.9796752858783879e+00  -7.9268444866115289e+00  -7.8737600983788321e+00  -7.8204457322941767e+00  -7.7671906172492280e+00  -7.7147720576225334e+00  -7.6647765911428536e+00  -7.6199766485759159e+00  -7.5845156823086795e+00  -7.5632945972491266e+00  -7.5595730584768477e+00  -8.3845513485848624e+00  -8.3790822804657061e+00  -8.3533569385416389e+00  -8.3143960383627569e+00  -8.2687502879033694e+00  -8.2205747628287504e+00  -8.1720129291219994e+00  -8.1239488813393130e+00  -8.0765761681454489e+00  -8.0297378008306559e+00  -7.9831107079521768e+00  -7.9363053715481424e+00  -7.8889303828864428e+00  -7.8406596438008567e+00  -7.7913421953327271e+00  -7.7412130009814462e+00  -7.6912940849109566e+00  -7.6440727992484447e+00  -7.6043175476025233e+00  -7.5790917058243066e+00  -7.5745324911328868e+00  -8.3570157361789210e+00  -8.3488660565865231e+00  -8.3178357609948570e+00  -8.2758557914711179e+00  -8.2308417393630222e+00  -8.1864042696412085e+00  -8.1437222229958426e+00  -8.1028713000701433e+00  -8.0634902629702214e+00  -8.0250662513792062e+00  -7.9870417587526008e+00  -7.9488463603177584e+00  -7.9099015682244165e+00  -7.8696258673392476e+00  -7.8274684357064013e+00  -7.7830269805460928e+00  -7.7363782533716616e+00  -7.6889033232257074e+00  -7.6449947208290396e+00  -7.6140515837702054e+00  -7.6080884481017730e+00  -8.3044867962187237e+00  -8.2902551146501651e+00  -8.2536627135579703e+00  -8.2122144861373219e+00  -8.1728454375035504e+00  -8.1370274536702922e+00  -8.1044179858192731e+00  -8.0742621996569905e+00  -8.0458073054071200e+00  -8.0183846311039755e+00  -7.9913956232721297e+00  -7.9642742919938421e+00  -7.9364446766179437e+00  -7.9072763013850071e+00  -7.8760399143198558e+00  -7.8418808273433722e+00  -7.8038876505318999e+00  -7.7615477720649322e+00  -7.7165777255030852e+00  -7.6781891857902389e+00  -7.6694736916646171e+00  -8.2112793694646840e+00  -8.1849094744379887e+00  -8.1496650691633672e+00  -8.1190863041165251e+00  -8.0941676994863041e+00  -8.0734054549107466e+00  -8.0554285533127352e+00  -8.0392780577207539e+00  -8.0242913750949185e+00  -8.0099822334965296e+00  -7.9959589649700273e+00  -7.9818687029504991e+00  -7.9673526203968690e+00  -7.9519995761072320e+00  -7.9352842655872191e+00  -7.9164692715969807e+00  -7.8944403021869158e+00  -7.8674695151420142e+00  -7.8332539326584154e+00  -7.7923516712263741e+00  -7.7777623259000395e+00  -8.0000000000000000e+00  -8.0000000000000000e+00  -8.0000000000000000e+00  -8.0000000000000000e+00  -8.0000000000000000e+00  -8.0000000000000000e+00  -8.0000000000000000e+00  -8.0000000000000000e+00  -8.0000000000000000e+00  -8.0000000000000000e+00  -8.0000000000000000e+00  -8.0000000000000000e+00  -8.0000000000000000e+00  -8.0000000000000000e+00  -8.0000000000000000e+00  -8.0000000000000000e+00  -8.0000000000000000e+00  -8.0000000000000000e+00  -8.0000000000000000e+00  -8.0000000000000000e+00  -8.0000000000000000e+00  </DataArray> 
</PointData> 
</Piece>
</UnstructuredGrid>
</VTKFile>