<?xml version="1.0"?>
<VTKFile type="UnstructuredGrid"  version="0.1"  >
<UnstructuredGrid>
<Piece  NumberOfPoints="651" NumberOfCells="1200">
<Points>
<DataArray  type="Float64"  NumberOfComponents="3"  format="ascii">0 0 0  50000 0 0  100000 0 0  150000 0 0  200000 0 0  250000 0 0  300000 0 0  350000 0 0  400000 0 0  450000 0 0  500000 0 0  550000 0 0  600000 0 0  650000 0 0  700000 0 0  750000 0 0  800000 0 0  850000 0 0  900000 0 0  950000 0 0  1000000 0 0  0 50000 0  50000 50000 0  100000 50000 0  150000 50000 0  200000 50000 0  250000 50000 0  300000 50000 0  350000 50000 0  400000 50000 0  450000 50000 0  500000 50000 0  550000 50000 0  600000 50000 0  650000 50000 0  700000 50000 0  750000 50000 0  800000 50000 0  850000 50000 0  900000 50000 0  950000 50000 0  1000000 50000 0  0 100000 0  50000 100000 0  100000 100000 0  150000 100000 0  200000 100000 0  250000 100000 0  300000 100000 0  350000 100000 0  400000 100000 0  450000 100000 0  500000 100000 0  550000 100000 0  600000 100000 0  650000 100000 0  700000 100000 0  750000 100000 0  800000 100000 0  850000 100000 0  900000 100000 0  950000 100000 0  1000000 100000 0  0 150000 0  50000 150000 0  100000 150000 0  150000 150000 0  200000 150000 0  250000 150000 0  300000 150000 0  350000 150000 0  400000 150000 0  450000 150000 0  500000 150000 0  550000 150000 0  600000 150000 0  650000 150000 0  700000 150000 0  750000 150000 0  800000 150000 0  850000 150000 0  900000 150000 0  950000 150000 0  1000000 150000 0  0 200000 0  50000 200000 0  100000 200000 0  150000 200000 0  200000 200000 0  250000 200000 0  300000 200000 0  350000 200000 0  400000 200000 0  450000 200000 0  500000 200000 0  550000 200000 0  600000 200000 0  650000 200000 0  700000 200000 0  750000 200000 0  800000 200000 0  850000 200000 0  900000 200000 0  950000 200000 0  1000000 200000 0  0 250000 0  50000 250000 0  100000 250000 0  150000 250000 0  200000 250000 0  250000 250000 0  300000 250000 0  350000 250000 0  400000 250000 0  450000 250000 0  500000 250000 0  550000 250000 0  600000 250000 0  650000 250000 0  700000 250000 0  750000 250000 0  800000 250000 0  850000 250000 0  900000 250000 0  950000 250000 0  1000000 250000 0  0 300000 0  50000 300000 0  100000 300000 0  150000 300000 0  200000 300000 0  250000 300000 0  300000 300000 0  350000 300000 0  400000 300000 0  450000 300000 0  500000 300000 0  550000 300000 0  600000 300000 0  650000 300000 0  700000 300000 0  750000 300000 0  800000 300000 0  850000 300000 0  900000 300000 0  950000 300000 0  1000000 300000 0  0 350000 0  50000 350000 0  100000 350000 0  150000 350000 0  200000 350000 0  250000 350000 0  300000 350000 0  350000 350000 0  400000 350000 0  450000 350000 0  500000 350000 0  550000 350000 0  600000 350000 0  650000 350000 0  700000 350000 0  750000 350000 0  800000 350000 0  850000 350000 0  900000 350000 0  950000 350000 0  1000000 350000 0  0 400000 0  50000 400000 0  100000 400000 0  150000 400000 0  200000 400000 0  250000 400000 0  300000 400000 0  350000 400000 0  400000 400000 0  450000 400000 0  500000 400000 0  550000 400000 0  600000 400000 0  650000 400000 0  700000 400000 0  750000 400000 0  800000 400000 0  850000 400000 0  900000 400000 0  950000 400000 0  1000000 400000 0  0 450000 0  50000 450000 0  100000 450000 0  150000 450000 0  200000 450000 0  250000 450000 0  300000 450000 0  350000 450000 0  400000 450000 0  450000 450000 0  500000 450000 0  550000 450000 0  600000 450000 0  650000 450000 0  700000 450000 0  750000 450000 0  800000 450000 0  850000 450000 0  900000 450000 0  950000 450000 0  1000000 450000 0  0 500000 0  50000 500000 0  100000 500000 0  150000 500000 0  200000 500000 0  250000 500000 0  300000 500000 0  350000 500000 0  400000 500000 0  450000 500000 0  500000 500000 0  550000 500000 0  600000 500000 0  650000 500000 0  700000 500000 0  750000 500000 0  800000 500000 0  850000 500000 0  900000 500000 0  950000 500000 0  1000000 500000 0  0 550000 0  50000 550000 0  100000 550000 0  150000 550000 0  200000 550000 0  250000 550000 0  300000 550000 0  350000 550000 0  400000 550000 0  450000 550000 0  500000 550000 0  550000 550000 0  600000 550000 0  650000 550000 0  700000 550000 0  750000 550000 0  800000 550000 0  850000 550000 0  900000 550000 0  950000 550000 0  1000000 550000 0  0 600000 0  50000 600000 0  100000 600000 0  150000 600000 0  200000 600000 0  250000 600000 0  300000 600000 0  350000 600000 0  400000 600000 0  450000 600000 0  500000 600000 0  550000 600000 0  600000 600000 0  650000 600000 0  700000 600000 0  750000 600000 0  800000 600000 0  850000 600000 0  900000 600000 0  950000 600000 0  1000000 600000 0  0 650000 0  50000 650000 0  100000 650000 0  150000 650000 0  200000 650000 0  250000 650000 0  300000 650000 0  350000 650000 0  400000 650000 0  450000 650000 0  500000 650000 0  550000 650000 0  600000 650000 0  650000 650000 0  700000 650000 0  750000 650000 0  800000 650000 0  850000 650000 0  900000 650000 0  950000 650000 0  1000000 650000 0  0 700000 0  50000 700000 0  100000 700000 0  150000 700000 0  200000 700000 0  250000 700000 0  300000 700000 0  350000 700000 0  400000 700000 0  450000 700000 0  500000 700000 0  550000 700000 0  600000 700000 0  650000 700000 0  700000 700000 0  750000 700000 0  800000 700000 0  850000 700000 0  900000 700000 0  950000 700000 0  1000000 700000 0  0 750000 0  50000 750000 0  100000 750000 0  150000 750000 0  200000 750000 0  250000 750000 0  300000 750000 0  350000 750000 0  400000 750000 0  450000 750000 0  500000 750000 0  550000 750000 0  600000 750000 0  650000 750000 0  700000 750000 0  750000 750000 0  800000 750000 0  850000 750000 0  900000 750000 0  950000 750000 0  1000000 750000 0  0 800000 0  50000 800000 0  100000 800000 0  150000 800000 0  200000 800000 0  250000 800000 0  300000 800000 0  350000 800000 0  400000 800000 0  450000 800000 0  500000 800000 0  550000 800000 0  600000 800000 0  650000 800000 0  700000 800000 0  750000 800000 0  800000 800000 0  850000 800000 0  900000 800000 0  950000 800000 0  1000000 800000 0  0 850000 0  50000 850000 0  100000 850000 0  150000 850000 0  200000 850000 0  250000 850000 0  300000 850000 0  350000 850000 0  400000 850000 0  450000 850000 0  500000 850000 0  550000 850000 0  600000 850000 0  650000 850000 0  700000 850000 0  750000 850000 0  800000 850000 0  850000 850000 0  900000 850000 0  950000 850000 0  1000000 850000 0  0 900000 0  50000 900000 0  100000 900000 0  150000 900000 0  200000 900000 0  250000 900000 0  300000 900000 0  350000 900000 0  400000 900000 0  450000 900000 0  500000 900000 0  550000 900000 0  600000 900000 0  650000 900000 0  700000 900000 0  750000 900000 0  800000 900000 0  850000 900000 0  900000 900000 0  950000 900000 0  1000000 900000 0  0 950000 0  50000 950000 0  100000 950000 0  150000 950000 0  200000 950000 0  250000 950000 0  300000 950000 0  350000 950000 0  400000 950000 0  450000 950000 0  500000 950000 0  550000 950000 0  600000 950000 0  650000 950000 0  700000 950000 0  750000 950000 0  800000 950000 0  850000 950000 0  900000 950000 0  950000 950000 0  1000000 950000 0  0 1000000 0  50000 1000000 0  100000 1000000 0  150000 1000000 0  200000 1000000 0  250000 1000000 0  300000 1000000 0  350000 1000000 0  400000 1000000 0  450000 1000000 0  500000 1000000 0  550000 1000000 0  600000 1000000 0  650000 1000000 0  700000 1000000 0  750000 1000000 0  800000 1000000 0  850000 1000000 0  900000 1000000 0  950000 1000000 0  1000000 1000000 0  0 1050000 0  50000 1050000 0  100000 1050000 0  150000 1050000 0  200000 1050000 0  250000 1050000 0  300000 1050000 0  350000 1050000 0  400000 1050000 0  450000 1050000 0  500000 1050000 0  550000 1050000 0  600000 1050000 0  650000 1050000 0  700000 1050000 0  750000 1050000 0  800000 1050000 0  850000 1050000 0  900000 1050000 0  950000 1050000 0  1000000 1050000 0  0 1100000 0  50000 1100000 0  100000 1100000 0  150000 1100000 0  200000 1100000 0  250000 1100000 0  300000 1100000 0  350000 1100000 0  400000 1100000 0  450000 1100000 0  500000 1100000 0  550000 1100000 0  600000 1100000 0  650000 1100000 0  700000 1100000 0  750000 1100000 0  800000 1100000 0  850000 1100000 0  900000 1100000 0  950000 1100000 0  1000000 1100000 0  0 1150000 0  50000 1150000 0  100000 1150000 0  150000 1150000 0  200000 1150000 0  250000 1150000 0  300000 1150000 0  350000 1150000 0  400000 1150000 0  450000 1150000 0  500000 1150000 0  550000 1150000 0  600000 1150000 0  650000 1150000 0  700000 1150000 0  750000 1150000 0  800000 1150000 0  850000 1150000 0  900000 1150000 0  950000 1150000 0  1000000 1150000 0  0 1200000 0  50000 1200000 0  100000 1200000 0  150000 1200000 0  200000 1200000 0  250000 1200000 0  300000 1200000 0  350000 1200000 0  400000 1200000 0  450000 1200000 0  500000 1200000 0  550000 1200000 0  600000 1200000 0  650000 1200000 0  700000 1200000 0  750000 1200000 0  800000 1200000 0  850000 1200000 0  900000 1200000 0  950000 1200000 0  1000000 1200000 0  0 1250000 0  50000 1250000 0  100000 1250000 0  150000 1250000 0  200000 1250000 0  250000 1250000 0  300000 1250000 0  350000 1250000 0  400000 1250000 0  450000 1250000 0  500000 1250000 0  550000 1250000 0  600000 1250000 0  650000 1250000 0  700000 1250000 0  750000 1250000 0  800000 1250000 0  850000 1250000 0  900000 1250000 0  950000 1250000 0  1000000 1250000 0  0 1300000 0  50000 1300000 0  100000 1300000 0  150000 1300000 0  200000 1300000 0  250000 1300000 0  300000 1300000 0  350000 1300000 0  400000 1300000 0  450000 1300000 0  500000 1300000 0  550000 1300000 0  600000 1300000 0  650000 1300000 0  700000 1300000 0  750000 1300000 0  800000 1300000 0  850000 1300000 0  900000 1300000 0  950000 1300000 0  1000000 1300000 0  0 1350000 0  50000 1350000 0  100000 1350000 0  150000 1350000 0  200000 1350000 0  250000 1350000 0  300000 1350000 0  350000 1350000 0  400000 1350000 0  450000 1350000 0  500000 1350000 0  550000 1350000 0  600000 1350000 0  650000 1350000 0  700000 135
[...]
<PointData  Scalars="f_1511"> 
<DataArray  type="Float64"  Name="f_1511"  format="ascii">-8.0267146684618922e+00  -8.0263411257236594e+00  -8.0245020101865681e+00  -8.0211915449862428e+00  -8.0164952362428181e+00  -8.0105378117385069e+00  -8.0034774195169742e+00  -7.9955011021260312e+00  -7.9868197621456893e+00  -7.9776625227017322e+00  -7.9682706238483076e+00  -7.9588910200364245e+00  -7.9497698455562116e+00  -7.9411459167843663e+00  -7.9332444464184464e+00  -7.9262711686442859e+00  -7.9204071645088554e+00  -7.9158049596112496e+00  -7.9125868022493950e+00  -7.9108386446676686e+00  -7.9104610545936360e+00  -8.0270725816238890e+00  -8.0267072145126601e+00  -8.0248416892642283e+00  -8.0215091456737060e+00  -8.0167882287030618e+00  -8.0108013511226215e+00  -8.0037061039769277e+00  -7.9956898301287094e+00  -7.9869641698355824e+00  -7.9777592292368213e+00  -7.9683173772913651e+00  -7.9588867784910020e+00  -7.9497148057286715e+00  -7.9410414907730988e+00  -7.9330931751495326e+00  -7.9260765253833378e+00  -7.9201730549121541e+00  -7.9155341226711879e+00  -7.9122754381910179e+00  -7.9104658087196249e+00  -7.9100881485336387e+00  -8.0288029252599635e+00  -8.0284626377066495e+00  -8.0265539829742227e+00  -8.0231207353465734e+00  -8.0182570651273117e+00  -8.0120916211017583e+00  -8.0047867432308948e+00  -7.9965348149558411e+00  -7.9875531901335348e+00  -7.9780782950049689e+00  -7.9683592401931822e+00  -7.9586511481189719e+00  -7.9492083614685773e+00  -7.9402776933091035e+00  -7.9320918840071419e+00  -7.9248634406380081e+00  -7.9187790511850240e+00  -7.9139947677460869e+00  -7.9106319628080737e+00  -7.9087722893327497e+00  -7.9084334574919044e+00  -8.0318842195377069e+00  -8.0315474173086852e+00  -8.0295668265289581e+00  -8.0259701188931363e+00  -8.0208610833189287e+00  -8.0143802028688444e+00  -8.0067006049686160e+00  -7.9980254592699254e+00  -7.9885834681393915e+00  -7.9786230682410961e+00  -7.9684059013465749e+00  -7.9581998944985877e+00  -7.9482721842571014e+00  -7.9388820817629266e+00  -7.9302742742144705e+00  -7.9226724846509669e+00  -7.9162738651695808e+00  -7.9112444274529139e+00  -7.9077153606713173e+00  -7.9057762559975071e+00  -7.9054368959895713e+00  -8.0362688014444359e+00  -8.0359220771063402e+00  -8.0338283622297606e+00  -8.0300013530715475e+00  -8.0245489320878516e+00  -8.0176236723495027e+00  -8.0094133022376521e+00  -8.0001367597311273e+00  -7.9900394987049008e+00  -7.9793875695526575e+00  -7.9684608586642245e+00  -7.9575458525635003e+00  -7.9469282039864435e+00  -7.9368853313062075e+00  -7.9276792760078809e+00  -7.9195500647418156e+00  -7.9127098464116781e+00  -7.9073379585155834e+00  -7.9035761057339196e+00  -7.9015176624356647e+00  -7.9011591104503403e+00  -8.0419295989533008e+00  -8.0415628819735954e+00  -8.0393132354715480e+00  -8.0351850589949194e+00  -8.0292903744105377e+00  -8.0217942389289671e+00  -8.0129015340564909e+00  -8.0028510404030655e+00  -7.9919098478726971e+00  -7.9803669185540338e+00  -7.9685258859275967e+00  -7.9566973719383709e+00  -7.9451910894716447e+00  -7.9343079688237088e+00  -7.9243325384163477e+00  -7.9155257954520124e+00  -7.9081187743838530e+00  -7.9023067683902868e+00  -7.8982428998956635e+00  -7.8960241333894761e+00  -7.8956361994869857e+00  -8.0488586327826308e+00  -8.0484633386875277e+00  -8.0460153222871593e+00  -8.0415132588992027e+00  -8.0350755291767157e+00  -8.0268814727073483e+00  -8.0171557633759072e+00  -8.0061607389093901e+00  -7.9941896368453067e+00  -7.9815593316384730e+00  -7.9686024675459803e+00  -7.9556591694629608e+00  -7.9430685547784137e+00  -7.9311602621209243e+00  -7.9202462072725641e+00  -7.9106127700087017e+00  -7.9025135547068404e+00  -7.8961625496617200e+00  -7.8917261443247284e+00  -7.8893066227238346e+00  -7.8888816210060444e+00  -8.0570631012109946e+00  -8.0566312681005776e+00  -8.0539427892607574e+00  -8.0489929432613625e+00  -8.0419093404520527e+00  -8.0328883725804250e+00  -8.0221776541360885e+00  -8.0100668751533401e+00  -7.9968798128183156e+00  -7.9829660691611366e+00  -7.9686923633543811e+00  -7.9544334940551167e+00  -7.9405631416409932e+00  -7.9274446830509575e+00  -7.9154221907854136e+00  -7.9048117809816780e+00  -7.8958934097287621e+00  -7.8889028864507589e+00  -7.8840224539356436e+00  -7.8813620830488063e+00  -7.8808930662729244e+00  -8.0665610311211697e+00  -8.0660848953514925e+00  -8.0631137115306775e+00  -8.0576409006549223e+00  -8.0498063227671057e+00  -8.0398267626266016e+00  -8.0279764291114439e+00  -8.0145764230776386e+00  -7.9999855072697548e+00  -7.9845907471621622e+00  -7.9687978497948659e+00  -7.9530212800652471e+00  -7.9376742709583601e+00  -7.9231588425480490e+00  -7.9098559475653900e+00  -7.8981158662045488e+00  -7.8882489245632179e+00  -7.8805162930474157e+00  -7.8751191370398290e+00  -7.8721776596370381e+00  -7.8716578849260550e+00  -8.0773766144735202e+00  -8.0768483742143307e+00  -8.0735515918163525e+00  -8.0674789810960039e+00  -8.0587857477161773e+00  -8.0477128071593160e+00  -8.0345650568716405e+00  -8.0196993769432421e+00  -8.0035140903044724e+00  -7.9864384314124077e+00  -7.9689218687078158e+00  -7.9514233354828665e+00  -7.9344004248909119e+00  -7.9182985870297902e+00  -7.9035403725367734e+00  -7.8905147933329634e+00  -7.8795668566250976e+00  -7.8709870337300991e+00  -7.8649988523424739e+00  -7.8617353953475373e+00  -7.8611581242357369e+00  -8.0895350549472838e+00  -8.0889467193367093e+00  -8.0852803976296261e+00  -8.0785291366205882e+00  -8.0688667567363126e+00  -8.0565624280849875e+00  -8.0419562568568193e+00  -8.0254455892310848e+00  -8.0074730199367306e+00  -7.9885146092133930e+00  -7.9690681693684784e+00  -7.9496416412737716e+00  -7.9307415321034487e+00  -7.9128613423146570e+00  -7.8964699200284185e+00  -7.8819997381621860e+00  -7.8698351244142994e+00  -7.8603002149111525e+00  -7.8536447257048323e+00  -7.8500174485536807e+00  -7.8493758537315923e+00  -8.1030566899603400e+00  -8.1023999723056832e+00  -8.0983188355541120e+00  -8.0908078027749379e+00  -8.0800629244689528e+00  -8.0663862381799714e+00  -8.0501580596947591e+00  -8.0318212211698690e+00  -8.0118674051163445e+00  -7.9908240195774667e+00  -7.9692414794701758e+00  -7.9476808511714205e+00  -7.9267017013911083e+00  -7.9068499130734295e+00  -7.8886452458028771e+00  -7.8725685180510006e+00  -7.8590483925377956e+00  -7.8484475428392573e+00  -7.8410462015802072e+00  -7.8370120366674660e+00  -7.8362991537480555e+00  -8.1179501209631901e+00  -8.1172163555193642e+00  -8.1126735856649130e+00  -8.1043192611384907e+00  -8.0923758612830365e+00  -8.0771835921337303e+00  -8.0591685881507775e+00  -8.0388245564776515e+00  -8.0166971234149553e+00  -7.9933692727236174e+00  -7.9694477245670727e+00  -7.9455500978877467e+00  -7.9222924927221374e+00  -7.9002770042976156e+00  -7.8800787016251190e+00  -7.8622317606790153e+00  -7.8472146428905489e+00  -7.8354340980202677e+00  -7.8272059159664256e+00  -7.8227203713457394e+00  -7.8219290716947167e+00  -8.1342040518713148e+00  -8.1333841197833010e+00  -8.1283311832884575e+00  -8.1190476189364613e+00  -8.1057874468976152e+00  -8.0889353412829070e+00  -8.0689696835980147e+00  -8.0464408773750584e+00  -8.0219532885871132e+00  -7.9961491617820206e+00  -7.9696943106409588e+00  -7.9432652303156761e+00  -7.9175369523249230e+00  -7.8931707785971286e+00  -7.8708010600373797e+00  -7.8510204173163469e+00  -7.8343631346320519e+00  -7.8212864902513211e+00  -7.8121479092484787e+00  -7.8071648857107476e+00  -7.8062878537645561e+00  -8.1517774980078492e+00  -8.1508617468892393e+00  -8.1452481833650285e+00  -8.1349469936516048e+00  -8.1202502415485664e+00  -8.1015948299407743e+00  -8.0795189517986312e+00  -8.0546360535493111e+00  -8.0276138254161484e+00  -7.9991565485213387e+00  -7.9699904834244064e+00  -7.9408516259789597e+00  -7.9124746768775918e+00  -7.8855818153521406e+00  -7.8608699054568136e+00  -7.8389950868414919e+00  -7.8205542076525933e+00  -7.8060628072132605e+00  -7.7959275448367551e+00  -7.7903990930826508e+00  -7.7894287897000734e+00  -8.1705879832525667e+00  -8.1695661183016082e+00  -8.1633391762408625e+00  -8.1519294114124445e+00  -8.1356755376353878e+00  -8.1150765916573544e+00  -8.0907397331692668e+00  -8.0633484417256174e+00  -8.0336378737506120e+00  -8.0023756869980076e+00  -7.9703477777245508e+00  -7.9383477411463383e+00  -7.9071682102706804e+00  -7.8775918968266794e+00  -7.8503802043761226e+00  -7.8262577037191114e+00  -7.8058914718314441e+00  -7.7898648487914315e+00  -7.7786435643292027e+00  -7.7725194663829456e+00  -7.7714480525541827e+00  -8.1904972862855274e+00  -8.1893581977012193e+00  -8.1824621350627549e+00  -8.1698498153608021e+00  -8.1519183952523928e+00  -8.1292420976644362e+00  -8.1025084236604119e+00  -8.0724786440673384e+00  -8.0399587176439393e+00  -8.0057788376015750e+00  -7.9707805678379575e+00  -7.9358095699376401e+00  -7.9017111044536916e+00  -7.8693251030161413e+00  -7.8394776569058546e+00  -7.8129662590905520e+00  -7.7905370500247102e+00  -7.7728532539591182e+00  -7.7604527997730104e+00  -7.7536797941682636e+00  -7.7524989766245707e+00  -8.2112942176409156e+00  -8.2100256858682883e+00  -8.2024004473162080e+00  -8.1884874196445470e+00  -8.1687588446276056e+00  -8.1438817858439556e+00  -8.1146385032330031e+00  -8.0818766532257111e+00  -8.0464749411167205e+00  -8.0093220304354489e+00  -7.9713067230896488e+00  -7.9333161665519247e+00  -7.8962379683566191e+00  -7.8609617260823788e+00  -7.8283755173973724e+00  -7.7993533657080416e+00  -7.7747307159118328e+00  -7.7552662940382353e+00  -7.7415881957237529e+00  -7.7341085666848031e+00  -7.7328093065789743e+00  -8.2326737868174646e+00  -8.2312619664764632e+00  -8.2228407834550730e+00  -8.2075224064482253e+00  -8.1858782279322568e+00  -8.1586924764640010e+00  -8.1268606133406518e+00  -8.0913259733914238e+00  -8.0530395942032804e+00  -8.0129398846700397e+00  -7.9719483555457540e+00  -7.9309763093437997e+00  -7.8909367357636802e+00  -7.8527554640870418e+00  -7.8173756154422165e+00  -7.7857496337747829e+00  -7.7588140058233979e+00  -7.7374433592723193e+00  -7.7223810025437096e+00  -7.7141301005306460e+00  -7.7127020942845039e+00  -8.2542119110641021e+00  -8.2526404210798709e+00  -8.2433456189378056e+00  -8.2265065931355235e+00  -8.2028293822671863e+00  -8.1732492077093717e+00  -8.1387981517054460e+00  -8.1005245505514871e+00  -8.0594473932381270e+00  -8.0165395210589701e+00  -7.9727326118867872e+00  -7.9289361954895128e+00  -7.8860631129482330e+00  -7.8450541206653899e+00  -7.8068942298834036e+00  -7.7726129645129616e+00  -7.7432607120261228e+00  -7.7198545679969959e+00  -7.7032883550182865e+00  -7.6941903770859854e+00  -7.6926211668765339e+00  -8.2753344422636541e+00  -8.2735827500298527e+00  -8.2633186226211137e+00  -8.2448260980882981e+00  -8.2189990371771255e+00  -8.1869706095162158e+00  -8.1499382965351046e+00  -8.1090629509990713e+00  -8.0654205150123790e+00  -8.0199938859453415e+00  -7.9736923958673902e+00  -7.9273876589397885e+00  -7.8819565637657742e+00  -7.8383234355322911e+00  -7.7974931042163638e+00  -7.7605649098395943e+00  -7.7287156138411337e+00  -7.7031385948677533e+00  -7.6849280798015300e+00  -7.6748890539685579e+00  -7.6731625385493025e+00  -8.2952785837248069e+00  -8.2933190839821744e+00  -8.2819599926245555e+00  -8.2616530471017082e+00  -8.2335604706915326e+00  -8.1990774282112486e+00  -8.1595994639967753e+00  -8.1164014969588703e+00  -8.0705945859860648e+00  -8.0231353354354784e+00  -7.9748667954238677e+00  -7.9265756688651194e+00  -7.8790560071666569e+00  -7.8331723735850129e+00  -7.7899149179334417e+00  -7.7504349879536329e+00  -7.7160438846226649e+00  -7.6881519547176307e+00  -7.6681237488968321e+00  -7.6570200241607100e+00  -7.6551139860163984e+00  -8.3130434140047171e+00  -8.3108359539353085e+00  -8.2982066252020612e+00  -8.2758817546508059e+00  -8.2454143790777668e+00  -8.2085452731387001e+00  -8.1668985432764138e+00  -8.1218504665944398e+00  -8.0745082943055646e+00  -8.0257512269018232e+00  -7.9763008145995729e+00  -7.9268026306856170e+00  -7.8779112946975127e+00  -7.8303756702320140e+00  -7.7851203163350933e+00  -7.7433127985592778e+00  -7.7063942342711966e+00  -7.6760349523516691e+00  -7.6539652684147921e+00  -7.6416246901649565e+00  -7.6395066592167931e+00  -8.3273235834408688e+00  -8.3248045506653519e+00  -8.3106476435330716e+00  -8.2860423824196054e+00  -8.2531168653159472e+00  -8.2140562843887484e+00  -8.1707258656708905e+00  -8.1245616040950743e+00  -8.0766029309973977e+00  -8.0275846168058926e+00  -7.9780437793708092e+00  -7.9284251687837273e+00  -7.8791831305551163e+00  -7.8308848683533565e+00  -7.7843189631073315e+00  -7.7406047824110766e+00  -7.7012790214874318e+00  -7.6683028833782245e+00  -7.6438948538183737e+00  -7.6300657762151829e+00  -7.6276859374846637e+00  -8.3364149641929668e+00  -8.3334734707839004e+00  -8.3173971014544517e+00  -8.2901822382434904e+00  -8.2547977908488068e+00  -8.2139627004146565e+00  -8.1697442844053487e+00  -8.1235456001663646e+00  -8.0762420841006861e+00  -8.0283448705480556e+00  -7.9801455568556792e+00  -7.9318367789462858e+00  -7.8836192895038719e+00  -7.8358115538010740e+00  -7.7889778941749235e+00  -7.7440847407913616e+00  -7.7026724754334737e+00  -7.6669764955217703e+00  -7.6398377620059232e+00  -7.6241373898238844e+00  -7.6214158428128220e+00  -8.3380702089903078e+00  -8.3344899242006019e+00  -8.3158888294711542e+00  -8.2857050955007754e+00  -8.2480867949842658e+00  -8.2062928638259489e+00  -8.1624426481993524e+00  -8.1177385823246979e+00  -8.0727657362271241e+00  -8.0277344511903301e+00  -7.9826496470338828e+00  -7.9374278492979116e+00  -7.8919897286615077e+00  -7.8463557237862549e+00  -7.8007735245661145e+00  -7.7559083403069469e+00  -7.7131175247838062e+00  -7.6747726297200822e+00  -7.6444177896412562e+00  -7.6262455456505318e+00  -7.6230476055349676e+00  -8.3292579415395505e+00  -8.3245595710394387e+00  -8.3025304948049161e+00  -8.2691771689860065e+00  -8.2301032994206640e+00  -8.1888638530669695e+00  -8.1472931069960204e+00  -8.1061478900592707e+00  -8.0655941274315506e+00  -8.0254977290799854e+00  -7.9855824329683109e+00  -7.9455150904947098e+00  -7.9049609368004772e+00  -7.8636411179621968e+00  -7.8214266724842183e+00  -7.7785188394857041e+00  -7.7357921036305051e+00  -7.6953741329218817e+00  -7.6613433959553490e+00  -7.6397420739672324e+00  -7.6358247656661131e+00  -8.3057042223131550e+00  -8.2987072340048584e+00  -8.2721356239399473e+00  -8.2361962064200718e+00  -8.1976605729301628e+00  -8.1596179939458207e+00  -8.1230773716129150e+00  -8.0881037397240334e+00  -8.0543881758327736e+00  -8.0214919278296399e+00  -7.9889379819118815e+00  -7.9562382502149021e+00  -7.9228977624288595e+00  -7.8884190096109972e+00  -7.8523308267219516e+00  -7.8142892219817162e+00  -7.7743600752553510e+00  -7.7337248037388084e+00  -7.6961399321632911e+00  -7.6696444778536392e+00  -7.6645221469632663e+00  -8.2607460878103840e+00  -8.2485384238354555e+00  -8.2172040975100273e+00  -8.1817182477334018e+00  -8.1480128017353959e+00  -8.1173465721511029e+00  -8.0894264208142630e+00  -8.0636065090207971e+00  -8.0392426786899573e+00  -8.0157626814434213e+00  -7.9926542328732415e+00  -7.9694329086273852e+00  -7.9456057753466993e+00  -7.9206333035142737e+00  -7.8938915312153819e+00  -7.8646492951088218e+00  -7.8321270494765409e+00  -7.7958863761349582e+00  -7.7573949463800638e+00  -7.7245288587999950e+00  -7.7170462554153669e+00  -8.1809405937700070e+00  -8.1583427489355476e+00  -8.1281628151434351e+00  -8.1019816695819991e+00  -8.0806460829006053e+00  -8.0628681474103150e+00  -8.0474744984751005e+00  -8.0336444791821240e+00  -8.0208109751526795e+00  -8.0085577266600758e+00  -7.9965494248176530e+00  -7.9844839720221064e+00  -7.9720541845922233e+00  -7.9589081348664621e+00  -7.9445962430269521e+00  -7.9284874974265875e+00  -7.9096285291922328e+00  -7.8865411042516129e+00  -7.8572544944686138e+00  -7.8222434828633798e+00  -7.8097317180473711e+00  -8.0000000000000000e+00  -8.0000000000000000e+00  -8.0000000000000000e+00  -8.0000000000000000e+00  -8.0000000000000000e+00  -8.0000000000000000e+00  -8.0000000000000000e+00  -8.0000000000000000e+00  -8.0000000000000000e+00  -8.0000000000000000e+00  -8.0000000000000000e+00  -8.0000000000000000e+00  -8.0000000000000000e+00  -8.0000000000000000e+00  -8.0000000000000000e+00  -8.0000000000000000e+00  -8.0000000000000000e+00  -8.0000000000000000e+00  -8.0000000000000000e+00  -8.0000000000000000e+00  -8.0000000000000000e+00  </DataArray> 
</PointData> 
</Piece>
</UnstructuredGrid>
</VTKFile>