<?xml version="1.0"?>
<VTKFile type="UnstructuredGrid"  version="0.1"  >
<UnstructuredGrid>
<Piece  NumberOfPoints="651" NumberOfCells="1200">
<Points>
<DataArray  type="Float64"  NumberOfComponents="3"  format="ascii">0 0 0  50000 0 0  100000 0 0  150000 0 0  200000 0 0  250000 0 0  300000 0 0  350000 0 0  400000 0 0  450000 0 0  500000 0 0  550000 0 0  600000 0 0  650000 0 0  700000 0 0  750000 0 0  800000 0 0  850000 0 0  900000 0 0  950000 0 0  1000000 0 0  0 50000 0  50000 50000 0  100000 50000 0  150000 50000 0  200000 50000 0  250000 50000 0  300000 50000 0  350000 50000 0  400000 50000 0  450000 50000 0  500000 50000 0  550000 50000 0  600000 50000 0  650000 50000 0  700000 50000 0  750000 50000 0  800000 50000 0  850000 50000 0  900000 50000 0  950000 50000 0  1000000 50000 0  0 100000 0  50000 100000 0  100000 100000 0  150000 100000 0  200000 100000 0  250000 100000 0  300000 100000 0  350000 100000 0  400000 100000 0  450000 100000 0  500000 100000 0  550000 100000 0  600000 100000 0  650000 100000 0  700000 100000 0  750000 100000 0  800000 100000 0  850000 100000 0  900000 100000 0  950000 100000 0  1000000 100000 0  0 150000 0  50000 150000 0  100000 150000 0  150000 150000 0  200000 150000 0  250000 150000 0  300000 150000 0  350000 150000 0  400000 150000 0  450000 150000 0  500000 150000 0  550000 150000 0  600000 150000 0  650000 150000 0  700000 150000 0  750000 150000 0  800000 150000 0  850000 150000 0  900000 150000 0  950000 150000 0  1000000 150000 0  0 200000 0  50000 200000 0  100000 200000 0  150000 200000 0  200000 200000 0  250000 200000 0  300000 200000 0  350000 200000 0  400000 200000 0  450000 200000 0  500000 200000 0  550000 200000 0  600000 200000 0  650000 200000 0  700000 200000 0  750000 200000 0  800000 200000 0  850000 200000 0  900000 200000 0  950000 200000 0  1000000 200000 0  0 250000 0  50000 250000 0  100000 250000 0  150000 250000 0  200000 250000 0  250000 250000 0  300000 250000 0  350000 250000 0  400000 250000 0  450000 250000 0  500000 250000 0  550000 250000 0  600000 250000 0  650000 250000 0  700000 250000 0  750000 250000 0  800000 250000 0  850000 250000 0  900000 250000 0  950000 250000 0  1000000 250000 0  0 300000 0  50000 300000 0  100000 300000 0  150000 300000 0  200000 300000 0  250000 300000 0  300000 300000 0  350000 300000 0  400000 300000 0  450000 300000 0  500000 300000 0  550000 300000 0  600000 300000 0  650000 300000 0  700000 300000 0  750000 300000 0  800000 300000 0  850000 300000 0  900000 300000 0  950000 300000 0  1000000 300000 0  0 350000 0  50000 350000 0  100000 350000 0  150000 350000 0  200000 350000 0  250000 350000 0  300000 350000 0  350000 350000 0  400000 350000 0  450000 350000 0  500000 350000 0  550000 350000 0  600000 350000 0  650000 350000 0  700000 350000 0  750000 350000 0  800000 350000 0  850000 350000 0  900000 350000 0  950000 350000 0  1000000 350000 0  0 400000 0  50000 400000 0  100000 400000 0  150000 400000 0  200000 400000 0  250000 400000 0  300000 400000 0  350000 400000 0  400000 400000 0  450000 400000 0  500000 400000 0  550000 400000 0  600000 400000 0  650000 400000 0  700000 400000 0  750000 400000 0  800000 400000 0  850000 400000 0  900000 400000 0  950000 400000 0  1000000 400000 0  0 450000 0  50000 450000 0  100000 450000 0  150000 450000 0  200000 450000 0  250000 450000 0  300000 450000 0  350000 450000 0  400000 450000 0  450000 450000 0  500000 450000 0  550000 450000 0  600000 450000 0  650000 450000 0  700000 450000 0  750000 450000 0  800000 450000 0  850000 450000 0  900000 450000 0  950000 450000 0  1000000 450000 0  0 500000 0  50000 500000 0  100000 500000 0  150000 500000 0  200000 500000 0  250000 500000 0  300000 500000 0  350000 500000 0  400000 500000 0  450000 500000 0  500000 500000 0  550000 500000 0  600000 500000 0  650000 500000 0  700000 500000 0  750000 500000 0  800000 500000 0  850000 500000 0  900000 500000 0  950000 500000 0  1000000 500000 0  0 550000 0  50000 550000 0  100000 550000 0  150000 550000 0  200000 550000 0  250000 550000 0  300000 550000 0  350000 550000 0  400000 550000 0  450000 550000 0  500000 550000 0  550000 550000 0  600000 550000 0  650000 550000 0  700000 550000 0  750000 550000 0  800000 550000 0  850000 550000 0  900000 550000 0  950000 550000 0  1000000 550000 0  0 600000 0  50000 600000 0  100000 600000 0  150000 600000 0  200000 600000 0  250000 600000 0  300000 600000 0  350000 600000 0  400000 600000 0  450000 600000 0  500000 600000 0  550000 600000 0  600000 600000 0  650000 600000 0  700000 600000 0  750000 600000 0  800000 600000 0  850000 600000 0  900000 600000 0  950000 600000 0  1000000 600000 0  0 650000 0  50000 650000 0  100000 650000 0  150000 650000 0  200000 650000 0  250000 650000 0  300000 650000 0  350000 650000 0  400000 650000 0  450000 650000 0  500000 650000 0  550000 650000 0  600000 650000 0  650000 650000 0  700000 650000 0  750000 650000 0  800000 650000 0  850000 650000 0  900000 650000 0  950000 650000 0  1000000 650000 0  0 700000 0  50000 700000 0  100000 700000 0  150000 700000 0  200000 700000 0  250000 700000 0  300000 700000 0  350000 700000 0  400000 700000 0  450000 700000 0  500000 700000 0  550000 700000 0  600000 700000 0  650000 700000 0  700000 700000 0  750000 700000 0  800000 700000 0  850000 700000 0  900000 700000 0  950000 700000 0  1000000 700000 0  0 750000 0  50000 750000 0  100000 750000 0  150000 750000 0  200000 750000 0  250000 750000 0  300000 750000 0  350000 750000 0  400000 750000 0  450000 750000 0  500000 750000 0  550000 750000 0  600000 750000 0  650000 750000 0  700000 750000 0  750000 750000 0  800000 750000 0  850000 750000 0  900000 750000 0  950000 750000 0  1000000 750000 0  0 800000 0  50000 800000 0  100000 800000 0  150000 800000 0  200000 800000 0  250000 800000 0  300000 800000 0  350000 800000 0  400000 800000 0  450000 800000 0  500000 800000 0  550000 800000 0  600000 800000 0  650000 800000 0  700000 800000 0  750000 800000 0  800000 800000 0  850000 800000 0  900000 800000 0  950000 800000 0  1000000 800000 0  0 850000 0  50000 850000 0  100000 850000 0  150000 850000 0  200000 850000 0  250000 850000 0  300000 850000 0  350000 850000 0  400000 850000 0  450000 850000 0  500000 850000 0  550000 850000 0  600000 850000 0  650000 850000 0  700000 850000 0  750000 850000 0  800000 850000 0  850000 850000 0  900000 850000 0  950000 850000 0  1000000 850000 0  0 900000 0  50000 900000 0  100000 900000 0  150000 900000 0  200000 900000 0  250000 900000 0  300000 900000 0  350000 900000 0  400000 900000 0  450000 900000 0  500000 900000 0  550000 900000 0  600000 900000 0  650000 900000 0  700000 900000 0  750000 900000 0  800000 900000 0  850000 900000 0  900000 900000 0  950000 900000 0  1000000 900000 0  0 950000 0  50000 950000 0  100000 950000 0  150000 950000 0  200000 950000 0  250000 950000 0  300000 950000 0  350000 950000 0  400000 950000 0  450000 950000 0  500000 950000 0  550000 950000 0  600000 950000 0  650000 950000 0  700000 950000 0  750000 950000 0  800000 950000 0  850000 950000 0  900000 950000 0  950000 950000 0  1000000 950000 0  0 1000000 0  50000 1000000 0  100000 1000000 0  150000 1000000 0  200000 1000000 0  250000 1000000 0  300000 1000000 0  350000 1000000 0  400000 1000000 0  450000 1000000 0  500000 1000000 0  550000 1000000 0  600000 1000000 0  650000 1000000 0  700000 1000000 0  750000 1000000 0  800000 1000000 0  850000 1000000 0  900000 1000000 0  950000 1000000 0  1000000 1000000 0  0 1050000 0  50000 1050000 0  100000 1050000 0  150000 1050000 0  200000 1050000 0  250000 1050000 0  300000 1050000 0  350000 1050000 0  400000 1050000 0  450000 1050000 0  500000 1050000 0  550000 1050000 0  600000 1050000 0  650000 1050000 0  700000 1050000 0  750000 1050000 0  800000 1050000 0  850000 1050000 0  900000 1050000 0  950000 1050000 0  1000000 1050000 0  0 1100000 0  50000 1100000 0  100000 1100000 0  150000 1100000 0  200000 1100000 0  250000 1100000 0  300000 1100000 0  350000 1100000 0  400000 1100000 0  450000 1100000 0  500000 1100000 0  550000 1100000 0  600000 1100000 0  650000 1100000 0  700000 1100000 0  750000 1100000 0  800000 1100000 0  850000 1100000 0  900000 1100000 0  950000 1100000 0  1000000 1100000 0  0 1150000 0  50000 1150000 0  100000 1150000 0  150000 1150000 0  200000 1150000 0  250000 1150000 0  300000 1150000 0  350000 1150000 0  400000 1150000 0  450000 1150000 0  500000 1150000 0  550000 1150000 0  600000 1150000 0  650000 1150000 0  700000 1150000 0  750000 1150000 0  800000 1150000 0  850000 1150000 0  900000 1150000 0  950000 1150000 0  1000000 1150000 0  0 1200000 0  50000 1200000 0  100000 1200000 0  150000 1200000 0  200000 1200000 0  250000 1200000 0  300000 1200000 0  350000 1200000 0  400000 1200000 0  450000 1200000 0  500000 1200000 0  550000 1200000 0  600000 1200000 0  650000 1200000 0  700000 1200000 0  750000 1200000 0  800000 1200000 0  850000 1200000 0  900000 1200000 0  950000 1200000 0  1000000 1200000 0  0 1250000 0  50000 1250000 0  100000 1250000 0  150000 1250000 0  200000 1250000 0  250000 1250000 0  300000 1250000 0  350000 1250000 0  400000 1250000 0  450000 1250000 0  500000 1250000 0  550000 1250000 0  600000 1250000 0  650000 1250000 0  700000 1250000 0  750000 1250000 0  800000 1250000 0  850000 1250000 0  900000 1250000 0  950000 1250000 0  1000000 1250000 0  0 1300000 0  50000 1300000 0  100000 1300000 0  150000 1300000 0  200000 1300000 0  250000 1300000 0  300000 1300000 0  350000 1300000 0  400000 1300000 0  450000 1300000 0  500000 1300000 0  550000 1300000 0  600000 1300000 0  650000 1300000 0  700000 1300000 0  750000 1300000 0  800000 1300000 0  850000 1300000 0  900000 1300000 0  950000 1300000 0  1000000 1300000 0  0 1350000 0  50000 1350000 0  100000 1350000 0  150000 1350000 0  200000 1350000 0  250000 1350000 0  300000 1350000 0  350000 1350000 0  400000 1350000 0  450000 1350000 0  500000 1350000 0  550000 1350000 0  600000 1350000 0  650000 1350000 0  700000 135
[...]
<PointData  Scalars="f_1511"> 
<DataArray  type="Float64"  Name="f_1511"  format="ascii">-8.0166496524268016e+00  -8.0164153985684603e+00  -8.0152760985973366e+00  -8.0132278924663378e+00  -8.0103230710141080e+00  -8.0066383265283836e+00  -8.0022711768743715e+00  -7.9973371518325997e+00  -7.9919666572403099e+00  -7.9863014615447829e+00  -7.9804908921065083e+00  -7.9746878440129114e+00  -7.9690447057454694e+00  -7.9637093074568810e+00  -7.9588210014656990e+00  -7.9545069987685126e+00  -7.9508791395098415e+00  -7.9480314447405727e+00  -7.9460389929186270e+00  -7.9449541609681713e+00  -7.9447162760178553e+00  -8.0168696179635486e+00  -8.0166402522234375e+00  -8.0154847530295292e+00  -8.0134228674699326e+00  -8.0105027072538899e+00  -8.0067995627092632e+00  -8.0024106258637708e+00  -7.9974516245935856e+00  -7.9920534313516036e+00  -7.9863584327881121e+00  -7.9805166650308479e+00  -7.9746817823929934e+00  -7.9690069502505096e+00  -7.9636407609351787e+00  -7.9587232746701364e+00  -7.9543822879474231e+00  -7.9507299179664548e+00  -7.9478594862707057e+00  -7.9458421120827527e+00  -7.9447198161373418e+00  -7.9444818790063358e+00  -8.0179367199255047e+00  -8.0177223362777337e+00  -8.0165399278910510e+00  -8.0144158153897109e+00  -8.0114075051301246e+00  -8.0075940837971995e+00  -8.0030756607806488e+00  -7.9979710752509288e+00  -7.9924147313753418e+00  -7.9865529241926509e+00  -7.9805398598335255e+00  -7.9745334968698458e+00  -7.9686913123116669e+00  -7.9631660929907495e+00  -7.9581018557869516e+00  -7.9536300062342420e+00  -7.9498658546027947e+00  -7.9469056092537897e+00  -7.9448238526035890e+00  -7.9436704411148060e+00  -7.9434558757926776e+00  -8.0198382643386328e+00  -8.0196256599591340e+00  -8.0183983231478670e+00  -8.0161729996064590e+00  -8.0130130801780854e+00  -8.0090048647124146e+00  -8.0042550692031664e+00  -7.9988891655811374e+00  -7.9930485532885456e+00  -7.9868869399325444e+00  -7.9805662705047471e+00  -7.9742524135847574e+00  -7.9681107498261596e+00  -7.9623017853412961e+00  -7.9569769119486748e+00  -7.9522744520402027e+00  -7.9483161580001136e+00  -7.9452043543780650e+00  -7.9430196410976022e+00  -7.9418167744960240e+00  -7.9416016241437042e+00  -8.0225458545021588e+00  -8.0223267844919182e+00  -8.0210290544272329e+00  -8.0186610821336455e+00  -8.0152888448769701e+00  -8.0110060589225451e+00  -8.0059283996926034e+00  -8.0001910374314402e+00  -7.9939456941751024e+00  -7.9873569447879813e+00  -7.9805979988352531e+00  -7.9738461879038773e+00  -7.9672783296537997e+00  -7.9610661123334898e+00  -7.9553716395409788e+00  -7.9503432883311751e+00  -7.9461120487352650e+00  -7.9427884444260313e+00  -7.9404595533283633e+00  -7.9391825353779470e+00  -7.9389553473130938e+00  -8.0260437322204723e+00  -8.0258119706542086e+00  -8.0244174020615482e+00  -8.0218629105209143e+00  -8.0182171026238986e+00  -8.0135813937551799e+00  -8.0080820153538177e+00  -8.0018663589584076e+00  -7.9950994883948150e+00  -7.9879601204546749e+00  -7.9806361315151566e+00  -7.9733197648615688e+00  -7.9662027045627957e+00  -7.9594711642410676e+00  -7.9533011341556321e+00  -7.9478539336325191e+00  -7.9432721999350608e+00  -7.9396762944361043e+00  -7.9371603524990757e+00  -7.9357838296755778e+00  -7.9355382775055974e+00  -8.0303278605397193e+00  -8.0300780760490706e+00  -8.0285604247747688e+00  -8.0257743919490991e+00  -8.0217925637257181e+00  -8.0167251788352800e+00  -8.0107106744884273e+00  -8.0039109731981188e+00  -7.9965072792215581e+00  -7.9886955509191786e+00  -7.9806815937404849e+00  -7.9726758895162497e+00  -7.9648883015191423e+00  -7.9575227901607182e+00  -7.9507722709153628e+00  -7.9448137425809326e+00  -7.9398037783039133e+00  -7.9358742824442414e+00  -7.9331275976007838e+00  -7.9316265270377597e+00  -7.9313577964309285e+00  -8.0354035317566712e+00  -8.0351307632610354e+00  -8.0334639602564675e+00  -8.0304006008602080e+00  -8.0260189962433923e+00  -8.0204399181959243e+00  -8.0138159671693838e+00  -8.0063259578408417e+00  -7.9981699652084615e+00  -7.9895641808916693e+00  -7.9807354850314765e+00  -7.9719158097270322e+00  -7.9633364016080330e+00  -7.9552220924286807e+00  -7.9477856859429368e+00  -7.9412225658938205e+00  -7.9357055915732397e+00  -7.9313801508124859e+00  -7.9283583893488103e+00  -7.9267078978109025e+00  -7.9264116155277407e+00  -8.0412827022537101e+00  -8.0409821011549383e+00  -8.0391399459562294e+00  -8.0357526305591538e+00  -8.0309060315769631e+00  -8.0247335111653992e+00  -8.0174040982243486e+00  -8.0091160228857632e+00  -8.0000909972416903e+00  -7.9905683933528628e+00  -7.9807992234495124e+00  -7.9710399767505944e+00  -7.9615463882188742e+00  -7.9525672129437091e+00  -7.9443380816931262e+00  -7.9370755168762210e+00  -7.9309711606573057e+00  -7.9261860781973938e+00  -7.9228441094320026e+00  -7.9210191841222635e+00  -7.9206910931477577e+00  -8.0479811252627513e+00  -8.0476478113200898e+00  -8.0456036645567099e+00  -8.0418446888146082e+00  -8.0364662190831453e+00  -8.0296165104041197e+00  -8.0214835560288247e+00  -8.0122877161459538e+00  -8.0022751875330496e+00  -7.9917114542404963e+00  -7.9808746356906957e+00  -7.9700487715737385e+00  -7.9595170816855294e+00  -7.9495552272290171e+00  -7.9404246040981938e+00  -7.9323657155239662e+00  -7.9255916648541058e+00  -7.9202816353894239e+00  -7.9165732817925516e+00  -7.9145484925405221e+00  -7.9141843304040584e+00  -8.0555151727379215e+00  -8.0551441415878369e+00  -8.0528706819570353e+00  -8.0486910409537344e+00  -8.0427120176066538e+00  -8.0350993035857794e+00  -8.0260626566368618e+00  -8.0158474793599304e+00  -8.0047273871246922e+00  -7.9929968797852062e+00  -7.9809640438266740e+00  -7.9689433032686994e+00  -7.9572482054229283e+00  -7.9461842002022225e+00  -7.9360413779114953e+00  -7.9270871664705016e+00  -7.9195590129831244e+00  -7.9136569231240159e+00  -7.9095347281230115e+00  -7.9072840120305159e+00  -7.9068794540686680e+00  -8.0638982007637470e+00  -8.0634842578766186e+00  -8.0609533049873203e+00  -8.0563025345601247e+00  -8.0496524345059264e+00  -8.0411889828322707e+00  -8.0311468016002774e+00  -8.0197994560694337e+00  -8.0074509805963849e+00  -7.9944277133996007e+00  -7.9810703699047219e+00  -7.9677263340209397e+00  -7.9547420728930227e+00  -7.9424555315676058e+00  -7.9311883730573935e+00  -7.9212379917380940e+00  -7.9128692949841142e+00  -7.9063061320884955e+00  -7.9017211866574906e+00  -7.8992176891289958e+00  -7.8987683191189229e+00  -8.0731362926759846e+00  -8.0726740012114195e+00  -8.0698563871383016e+00  -8.0646824842100084e+00  -8.0572890596766484e+00  -8.0478856575412703e+00  -8.0367352436752171e+00  -8.0241428973702753e+00  -8.0104460994421824e+00  -7.9960056690546777e+00  -7.9811972701009770e+00  -7.9664033960102154e+00  -7.9520056118897733e+00  -7.9383767549859341e+00  -7.9258728072600828e+00  -7.9148242520161931e+00  -7.9055268536530967e+00  -7.8982317414434524e+00  -7.8931335718310152e+00  -7.8903495255020060e+00  -7.8898508190305048e+00  -8.0832231932669938e+00  -8.0827068268136291e+00  -8.0795722876912670e+00  -8.0738216906208127e+00  -8.0656112423024915e+00  -8.0551779548971201e+00  -8.0428171287156349e+00  -8.0288689794653383e+00  -8.0137074273187352e+00  -7.9977300808680596e+00  -7.9813493073056083e+00  -7.9649841770582004e+00  -7.9490528662003070e+00  -7.9339649849589948e+00  -7.9201133183033985e+00  -7.9078646093034033e+00  -7.8975492255152808e+00  -7.8894495813615686e+00  -7.8837860726417404e+00  -7.8806926846701586e+00  -7.8801399950388227e+00  -8.0941342238375604e+00  -8.0935577141544872e+00  -8.0900747569818545e+00  -8.0836923378736110e+00  -8.0745901287045694e+00  -8.0630374214450491e+00  -8.0493665494906423e+00  -8.0339568163983817e+00  -8.0172214466511438e+00  -7.9995965854825055e+00  -7.9815321704481432e+00  -7.9634842643600150e+00  -7.9459081388757076e+00  -7.9292512382744755e+00  -7.9139451762644564e+00  -7.9003961200585593e+00  -7.8889732330864035e+00  -7.8799950162995414e+00  -7.8737123175306927e+00  -7.8702796193559319e+00  -7.8696681545644624e+00  -8.1058189397528118e+00  -8.1051758053758931e+00  -8.1013114788943916e+00  -8.0942404626826878e+00  -8.0841712270719253e+00  -8.0714114888997575e+00  -8.0563363038329907e+00  -8.0393684178751421e+00  -8.0209629536938305e+00  -8.0015954525435156e+00  -7.9817529486595031e+00  -7.9619273470803709e+00  -7.9426099655318918e+00  -7.9242858940203371e+00  -7.9074268542642008e+00  -7.8924815026752588e+00  -7.8798625658080752e+00  -7.8699305554276293e+00  -7.8629728742219260e+00  -7.8591694620705850e+00  -7.8584942368411141e+00  -8.1181922564597961e+00  -8.1174754896860488e+00  -8.1131949461997497e+00  -8.1053766192896486e+00  -8.0942650900351634e+00  -8.0802146008233269e+00  -8.0636499997994964e+00  -8.0450423108509597e+00  -8.0248906526463166e+00  -8.0037094713298114e+00  -7.9820204670617638e+00  -7.9603479843332750e+00  -7.9392161238620016e+00  -7.9191455918219722e+00  -7.9006483323499985e+00  -7.8842182956224729e+00  -7.8703172654502831e+00  -7.8593552682636094e+00  -7.8516644091130683e+00  -7.8474569633639026e+00  -7.8467127021121623e+00  -8.1311237202227247e+00  -8.1303255953456350e+00  -8.1255912645641004e+00  -8.1169642633143511e+00  -8.1047356058430040e+00  -8.0893170191933752e+00  -8.0711921069394457e+00  -8.0508855303603770e+00  -8.0289416425542139e+00  -8.0059113054690734e+00  -7.9823456866668945e+00  -7.9587950346351191e+00  -7.9358098812560067e+00  -7.9139418864815294e+00  -7.8937415627174143e+00  -7.8757504109939687e+00  -7.8604856397653737e+00  -7.8484164876532576e+00  -7.8399309132292059e+00  -7.8352833230093184e+00  -7.8344642768442201e+00  -8.1444245230537753e+00  -8.1435362632324306e+00  -8.1383063564128388e+00  -8.1288052292606583e+00  -8.1153852573911553e+00  -8.0985307532664130e+00  -8.0787955423546514e+00  -8.0567637227043321e+00  -8.0330246614064098e+00  -8.0081602572203590e+00  -7.9827421604783693e+00  -7.9573357964333615e+00  -7.9325076250564228e+00  -7.9088319459544891e+00  -7.8868935520482761e+00  -7.8672826857833993e+00  -7.8505792764289719e+00  -7.8373244398730701e+00  -7.8279775318310989e+00  -7.8228493561813064e+00  -7.8219489768333670e+00  -8.1578317313577404e+00  -8.1568429256930521e+00  -8.1510688257938266e+00  -8.1406214454006705e+00  -8.1259365392038969e+00  -8.1075920065962954e+00  -8.0862264581099836e+00  -8.0624892549275557e+00  -8.0370121008051196e+00  -8.0103984639484178e+00  -7.9832265164350229e+00  -7.9560607918131048e+00  -7.9294678528291147e+00  -7.9040314354484877e+00  -7.8803624684642255e+00  -7.8590991205304528e+00  -7.8408920337341970e+00  -7.8263706920491165e+00  -7.8160877543660821e+00  -7.8104316027797083e+00  -7.8094419838804923e+00  -8.1709889633468222e+00  -8.1698865385842971e+00  -8.1635083691701080e+00  -8.1520316565413875e+00  -8.1360085168455853e+00  -8.1161395896105102e+00  -8.0931661710472760e+00  -8.0678076001626167e+00  -8.0407311371884820e+00  -8.0125467243505728e+00  -7.9838188977129860e+00  -7.9550888802318260e+00  -7.9269011261906064e+00  -7.8998293573850873e+00  -7.8744969549765020e+00  -7.8515855213596533e+00  -7.8318241638934625e+00  -7.8159517221682773e+00  -7.8046451132672567e+00  -7.7984022895677896e+00  -7.7973132311174558e+00  -8.1834223106117232e+00  -8.1821886826632770e+00  -8.1751279116882269e+00  -8.1625213098101348e+00  -8.1450873060489570e+00  -8.1236890497071048e+00  -8.0991908526777046e+00  -8.0723830566523755e+00  -8.0439549728258068e+00  -8.0145004822061843e+00  -7.9845432221428085e+00  -7.9545719333945346e+00  -7.9250798581190676e+00  -7.8966038120991824e+00  -7.8697582270285746e+00  -7.8452571012978884e+00  -7.8239130866638664e+00  -7.8065996260562409e+00  -7.7941612705536327e+00  -7.7872546248501688e+00  -7.7860520794240315e+00  -8.1945094549028017e+00  -8.1931190798799403e+00  -8.1852662806288574e+00  -8.1714027557179421e+00  -8.1524891893527993e+00  -8.1296031736879772e+00  -8.1037510491932938e+00  -8.0757863481787524e+00  -8.0463963155126450e+00  -8.0161270550649313e+00  -7.9854270161308083e+00  -7.9546975368109463e+00  -7.9243454961552384e+00  -7.8948360736430541e+00  -7.8667431581510954e+00  -7.8407909469444590e+00  -7.8178727173289255e+00  -7.7990232027873336e+00  -7.7853137848743508e+00  -7.7776360218036178e+00  -7.7762994951335012e+00  -8.2034382797477505e+00  -8.2018508031311566e+00  -8.1930455130269113e+00  -8.1777613981833763e+00  -8.1573156709583632e+00  -8.1330617668808909e+00  -8.1061559659877194e+00  -8.0774892260688613e+00  -8.0477070166707332e+00  -8.0172660376115168e+00  -7.9865004372226025e+00  -7.9556870410015765e+00  -7.9251085512555886e+00  -7.8951175433659531e+00  -7.8662036773617405e+00  -7.8390613922909669e+00  -7.8146433597081781e+00  -7.7941647566625809e+00  -7.7789996892367785e+00  -7.7703941230366222e+00  -7.7688922167735717e+00  -8.2091479845979674e+00  -8.2072933288245036e+00  -8.1972914690488654e+00  -8.1803816484934213e+00  -8.1584024551933414e+00  -8.1330387530779351e+00  -8.1055726842693137e+00  -8.0768751829364138e+00  -8.0474902261887742e+00  -8.0177358734541606e+00  -7.9877939593671368e+00  -7.9577848645795317e+00  -7.9278339397958097e+00  -7.8981394732219750e+00  -7.8690521005954235e+00  -7.8411715383645273e+00  -7.8154528657918494e+00  -7.7932813184662351e+00  -7.7764169273221313e+00  -7.7666454104845597e+00  -7.7649278174845433e+00  -8.2102389553394204e+00  -8.2079809919559743e+00  -8.1964059285126503e+00  -8.1776466437947910e+00  -8.1542730536477155e+00  -8.1283055497540300e+00  -8.1010591270814327e+00  -8.0732806055957891e+00  -8.0453339329556091e+00  -8.0173505018794309e+00  -7.9893341468492700e+00  -7.9612337787045071e+00  -7.9330008434856207e+00  -7.9046486719465427e+00  -7.8763315245208751e+00  -7.8484624345172858e+00  -7.8218831358467273e+00  -7.7980632534237593e+00  -7.7791985138415747e+00  -7.7678877003976154e+00  -7.7658697019346974e+00  -8.2048224668441989e+00  -8.2018609227312229e+00  -8.1881509470755276e+00  -8.1674169770445957e+00  -8.1431319546768641e+00  -8.1175006000503913e+00  -8.0916615219879322e+00  -8.0660852144959598e+00  -8.0408754667701263e+00  -8.0159497301406706e+00  -7.9911370848197478e+00  -7.9662312359189658e+00  -7.9410248918355490e+00  -7.9153455254525298e+00  -7.8891137009850913e+00  -7.8624548154535390e+00  -7.8359114366946985e+00  -7.8108020030617284e+00  -7.7896527036762064e+00  -7.7762081199515318e+00  -7.7737370777407655e+00  -8.1902341401578429e+00  -8.1858324730746350e+00  -8.1692946483312632e+00  -8.1469481733943514e+00  -8.1229905871520085e+00  -8.0993379935968850e+00  -8.0766169227743863e+00  -8.0548684092917675e+00  -8.0339012487656465e+00  -8.0134434452131327e+00  -7.9931991089973859e+00  -7.9728654279658064e+00  -7.9521353661300802e+00  -7.9307004511942267e+00  -7.9082687732525816e+00  -7.8846275518934386e+00  -7.8598182514636274e+00  -7.8345731367197917e+00  -7.8112178107451422e+00  -7.7947311479851944e+00  -7.7915026773947975e+00  -8.1623166958204116e+00  -8.1546639889488617e+00  -8.1351613859150529e+00  -8.1130919924360700e+00  -8.0921307350328124e+00  -8.0730569705813924e+00  -8.0556887164640774e+00  -8.0396253688826818e+00  -8.0244671937557737e+00  -8.0098589031416338e+00  -7.9954823282990901e+00  -7.9810365797080944e+00  -7.9662155495954501e+00  -7.9506843539775858e+00  -7.9340559535552284e+00  -7.9158771415161437e+00  -7.8956650581967240e+00  -7.8731482783776485e+00  -7.8492346305593284e+00  -7.8287953423693111e+00  -7.8240887525423295e+00  -8.1126719145300772e+00  -8.0985615215734352e+00  -8.0797771398423848e+00  -8.0634911895249299e+00  -8.0502179478781848e+00  -8.0391552360102843e+00  -8.0295743932219583e+00  -8.0209658878674048e+00  -8.0129774330221650e+00  -8.0053502999743493e+00  -7.9978759930975389e+00  -7.9903666515140355e+00  -7.9826312967034596e+00  -7.9744512403078494e+00  -7.9655472937091423e+00  -7.9555278715925652e+00  -7.9438017013395594e+00  -7.9294521982513411e+00  -7.9112562597519132e+00  -7.8895013449997080e+00  -7.8816656654270618e+00  -8.0000000000000000e+00  -8.0000000000000000e+00  -8.0000000000000000e+00  -8.0000000000000000e+00  -8.0000000000000000e+00  -8.0000000000000000e+00  -8.0000000000000000e+00  -8.0000000000000000e+00  -8.0000000000000000e+00  -8.0000000000000000e+00  -8.0000000000000000e+00  -8.0000000000000000e+00  -8.0000000000000000e+00  -8.0000000000000000e+00  -8.0000000000000000e+00  -8.0000000000000000e+00  -8.0000000000000000e+00  -8.0000000000000000e+00  -8.0000000000000000e+00  -8.0000000000000000e+00  -8.0000000000000000e+00  </DataArray> 
</PointData> 
</Piece>
</UnstructuredGrid>
</VTKFile>