<?xml version="1.0"?>
<VTKFile type="UnstructuredGrid"  version="0.1"  >
<UnstructuredGrid>
<Piece  NumberOfPoints="651" NumberOfCells="1200">
<Points>
<DataArray  type="Float64"  NumberOfComponents="3"  format="ascii">0 0 0  50000 0 0  100000 0 0  150000 0 0  200000 0 0  250000 0 0  300000 0 0  350000 0 0  400000 0 0  450000 0 0  500000 0 0  550000 0 0  600000 0 0  650000 0 0  700000 0 0  750000 0 0  800000 0 0  850000 0 0  900000 0 0  950000 0 0  1000000 0 0  0 50000 0  50000 50000 0  100000 50000 0  150000 50000 0  200000 50000 0  250000 50000 0  300000 50000 0  350000 50000 0  400000 50000 0  450000 50000 0  500000 50000 0  550000 50000 0  600000 50000 0  650000 50000 0  700000 50000 0  750000 50000 0  800000 50000 0  850000 50000 0  900000 50000 0  950000 50000 0  1000000 50000 0  0 100000 0  50000 100000 0  100000 100000 0  150000 100000 0  200000 100000 0  250000 100000 0  300000 100000 0  350000 100000 0  400000 100000 0  450000 100000 0  500000 100000 0  550000 100000 0  600000 100000 0  650000 100000 0  700000 100000 0  750000 100000 0  800000 100000 0  850000 100000 0  900000 100000 0  950000 100000 0  1000000 100000 0  0 150000 0  50000 150000 0  100000 150000 0  150000 150000 0  200000 150000 0  250000 150000 0  300000 150000 0  350000 150000 0  400000 150000 0  450000 150000 0  500000 150000 0  550000 150000 0  600000 150000 0  650000 150000 0  700000 150000 0  750000 150000 0  800000 150000 0  850000 150000 0  900000 150000 0  950000 150000 0  1000000 150000 0  0 200000 0  50000 200000 0  100000 200000 0  150000 200000 0  200000 200000 0  250000 200000 0  300000 200000 0  350000 200000 0  400000 200000 0  450000 200000 0  500000 200000 0  550000 200000 0  600000 200000 0  650000 200000 0  700000 200000 0  750000 200000 0  800000 200000 0  850000 200000 0  900000 200000 0  950000 200000 0  1000000 200000 0  0 250000 0  50000 250000 0  100000 250000 0  150000 250000 0  200000 250000 0  250000 250000 0  300000 250000 0  350000 250000 0  400000 250000 0  450000 250000 0  500000 250000 0  550000 250000 0  600000 250000 0  650000 250000 0  700000 250000 0  750000 250000 0  800000 250000 0  850000 250000 0  900000 250000 0  950000 250000 0  1000000 250000 0  0 300000 0  50000 300000 0  100000 300000 0  150000 300000 0  200000 300000 0  250000 300000 0  300000 300000 0  350000 300000 0  400000 300000 0  450000 300000 0  500000 300000 0  550000 300000 0  600000 300000 0  650000 300000 0  700000 300000 0  750000 300000 0  800000 300000 0  850000 300000 0  900000 300000 0  950000 300000 0  1000000 300000 0  0 350000 0  50000 350000 0  100000 350000 0  150000 350000 0  200000 350000 0  250000 350000 0  300000 350000 0  350000 350000 0  400000 350000 0  450000 350000 0  500000 350000 0  550000 350000 0  600000 350000 0  650000 350000 0  700000 350000 0  750000 350000 0  800000 350000 0  850000 350000 0  900000 350000 0  950000 350000 0  1000000 350000 0  0 400000 0  50000 400000 0  100000 400000 0  150000 400000 0  200000 400000 0  250000 400000 0  300000 400000 0  350000 400000 0  400000 400000 0  450000 400000 0  500000 400000 0  550000 400000 0  600000 400000 0  650000 400000 0  700000 400000 0  750000 400000 0  800000 400000 0  850000 400000 0  900000 400000 0  950000 400000 0  1000000 400000 0  0 450000 0  50000 450000 0  100000 450000 0  150000 450000 0  200000 450000 0  250000 450000 0  300000 450000 0  350000 450000 0  400000 450000 0  450000 450000 0  500000 450000 0  550000 450000 0  600000 450000 0  650000 450000 0  700000 450000 0  750000 450000 0  800000 450000 0  850000 450000 0  900000 450000 0  950000 450000 0  1000000 450000 0  0 500000 0  50000 500000 0  100000 500000 0  150000 500000 0  200000 500000 0  250000 500000 0  300000 500000 0  350000 500000 0  400000 500000 0  450000 500000 0  500000 500000 0  550000 500000 0  600000 500000 0  650000 500000 0  700000 500000 0  750000 500000 0  800000 500000 0  850000 500000 0  900000 500000 0  950000 500000 0  1000000 500000 0  0 550000 0  50000 550000 0  100000 550000 0  150000 550000 0  200000 550000 0  250000 550000 0  300000 550000 0  350000 550000 0  400000 550000 0  450000 550000 0  500000 550000 0  550000 550000 0  600000 550000 0  650000 550000 0  700000 550000 0  750000 550000 0  800000 550000 0  850000 550000 0  900000 550000 0  950000 550000 0  1000000 550000 0  0 600000 0  50000 600000 0  100000 600000 0  150000 600000 0  200000 600000 0  250000 600000 0  300000 600000 0  350000 600000 0  400000 600000 0  450000 600000 0  500000 600000 0  550000 600000 0  600000 600000 0  650000 600000 0  700000 600000 0  750000 600000 0  800000 600000 0  850000 600000 0  900000 600000 0  950000 600000 0  1000000 600000 0  0 650000 0  50000 650000 0  100000 650000 0  150000 650000 0  200000 650000 0  250000 650000 0  300000 650000 0  350000 650000 0  400000 650000 0  450000 650000 0  500000 650000 0  550000 650000 0  600000 650000 0  650000 650000 0  700000 650000 0  750000 650000 0  800000 650000 0  850000 650000 0  900000 650000 0  950000 650000 0  1000000 650000 0  0 700000 0  50000 700000 0  100000 700000 0  150000 700000 0  200000 700000 0  250000 700000 0  300000 700000 0  350000 700000 0  400000 700000 0  450000 700000 0  500000 700000 0  550000 700000 0  600000 700000 0  650000 700000 0  700000 700000 0  750000 700000 0  800000 700000 0  850000 700000 0  900000 700000 0  950000 700000 0  1000000 700000 0  0 750000 0  50000 750000 0  100000 750000 0  150000 750000 0  200000 750000 0  250000 750000 0  300000 750000 0  350000 750000 0  400000 750000 0  450000 750000 0  500000 750000 0  550000 750000 0  600000 750000 0  650000 750000 0  700000 750000 0  750000 750000 0  800000 750000 0  850000 750000 0  900000 750000 0  950000 750000 0  1000000 750000 0  0 800000 0  50000 800000 0  100000 800000 0  150000 800000 0  200000 800000 0  250000 800000 0  300000 800000 0  350000 800000 0  400000 800000 0  450000 800000 0  500000 800000 0  550000 800000 0  600000 800000 0  650000 800000 0  700000 800000 0  750000 800000 0  800000 800000 0  850000 800000 0  900000 800000 0  950000 800000 0  1000000 800000 0  0 850000 0  50000 850000 0  100000 850000 0  150000 850000 0  200000 850000 0  250000 850000 0  300000 850000 0  350000 850000 0  400000 850000 0  450000 850000 0  500000 850000 0  550000 850000 0  600000 850000 0  650000 850000 0  700000 850000 0  750000 850000 0  800000 850000 0  850000 850000 0  900000 850000 0  950000 850000 0  1000000 850000 0  0 900000 0  50000 900000 0  100000 900000 0  150000 900000 0  200000 900000 0  250000 900000 0  300000 900000 0  350000 900000 0  400000 900000 0  450000 900000 0  500000 900000 0  550000 900000 0  600000 900000 0  650000 900000 0  700000 900000 0  750000 900000 0  800000 900000 0  850000 900000 0  900000 900000 0  950000 900000 0  1000000 900000 0  0 950000 0  50000 950000 0  100000 950000 0  150000 950000 0  200000 950000 0  250000 950000 0  300000 950000 0  350000 950000 0  400000 950000 0  450000 950000 0  500000 950000 0  550000 950000 0  600000 950000 0  650000 950000 0  700000 950000 0  750000 950000 0  800000 950000 0  850000 950000 0  900000 950000 0  950000 950000 0  1000000 950000 0  0 1000000 0  50000 1000000 0  100000 1000000 0  150000 1000000 0  200000 1000000 0  250000 1000000 0  300000 1000000 0  350000 1000000 0  400000 1000000 0  450000 1000000 0  500000 1000000 0  550000 1000000 0  600000 1000000 0  650000 1000000 0  700000 1000000 0  750000 1000000 0  800000 1000000 0  850000 1000000 0  900000 1000000 0  950000 1000000 0  1000000 1000000 0  0 1050000 0  50000 1050000 0  100000 1050000 0  150000 1050000 0  200000 1050000 0  250000 1050000 0  300000 1050000 0  350000 1050000 0  400000 1050000 0  450000 1050000 0  500000 1050000 0  550000 1050000 0  600000 1050000 0  650000 1050000 0  700000 1050000 0  750000 1050000 0  800000 1050000 0  850000 1050000 0  900000 1050000 0  950000 1050000 0  1000000 1050000 0  0 1100000 0  50000 1100000 0  100000 1100000 0  150000 1100000 0  200000 1100000 0  250000 1100000 0  300000 1100000 0  350000 1100000 0  400000 1100000 0  450000 1100000 0  500000 1100000 0  550000 1100000 0  600000 1100000 0  650000 1100000 0  700000 1100000 0  750000 1100000 0  800000 1100000 0  850000 1100000 0  900000 1100000 0  950000 1100000 0  1000000 1100000 0  0 1150000 0  50000 1150000 0  100000 1150000 0  150000 1150000 0  200000 1150000 0  250000 1150000 0  300000 1150000 0  350000 1150000 0  400000 1150000 0  450000 1150000 0  500000 1150000 0  550000 1150000 0  600000 1150000 0  650000 1150000 0  700000 1150000 0  750000 1150000 0  800000 1150000 0  850000 1150000 0  900000 1150000 0  950000 1150000 0  1000000 1150000 0  0 1200000 0  50000 1200000 0  100000 1200000 0  150000 1200000 0  200000 1200000 0  250000 1200000 0  300000 1200000 0  350000 1200000 0  400000 1200000 0  450000 1200000 0  500000 1200000 0  550000 1200000 0  600000 1200000 0  650000 1200000 0  700000 1200000 0  750000 1200000 0  800000 1200000 0  850000 1200000 0  900000 1200000 0  950000 1200000 0  1000000 1200000 0  0 1250000 0  50000 1250000 0  100000 1250000 0  150000 1250000 0  200000 1250000 0  250000 1250000 0  300000 1250000 0  350000 1250000 0  400000 1250000 0  450000 1250000 0  500000 1250000 0  550000 1250000 0  600000 1250000 0  650000 1250000 0  700000 1250000 0  750000 1250000 0  800000 1250000 0  850000 1250000 0  900000 1250000 0  950000 1250000 0  1000000 1250000 0  0 1300000 0  50000 1300000 0  100000 1300000 0  150000 1300000 0  200000 1300000 0  250000 1300000 0  300000 1300000 0  350000 1300000 0  400000 1300000 0  450000 1300000 0  500000 1300000 0  550000 1300000 0  600000 1300000 0  650000 1300000 0  700000 1300000 0  750000 1300000 0  800000 1300000 0  850000 1300000 0  900000 1300000 0  950000 1300000 0  1000000 1300000 0  0 1350000 0  50000 1350000 0  100000 1350000 0  150000 1350000 0  200000 1350000 0  250000 1350000 0  300000 1350000 0  350000 1350000 0  400000 1350000 0  450000 1350000 0  500000 1350000 0  550000 1350000 0  600000 1350000 0  650000 1350000 0  700000 135
[...]
<PointData  Scalars="f_1511"> 
<DataArray  type="Float64"  Name="f_1511"  format="ascii">-8.0039565386071008e+00  -8.0038941333826958e+00  -8.0036118772899005e+00  -8.0031085640781665e+00  -8.0023958861672604e+00  -8.0014918130262878e+00  -8.0004197357399942e+00  -7.9992077470227239e+00  -7.9978878306495389e+00  -7.9964949497668085e+00  -7.9950660559663733e+00  -7.9936390460672371e+00  -7.9922516948696121e+00  -7.9909405928584150e+00  -7.9897401186303778e+00  -7.9886814784073730e+00  -7.9877918553186271e+00  -7.9870937429943965e+00  -7.9866045652115041e+00  -7.9863357072780090e+00  -7.9862739934708440e+00  -8.0040163769136310e+00  -8.0039552311929771e+00  -8.0036695180526802e+00  -8.0031628726372563e+00  -8.0024461750749420e+00  -8.0015371402729372e+00  -8.0004591287987861e+00  -7.9992403143792306e+00  -7.9979128215518616e+00  -7.9965117896884923e+00  -7.9950743685395258e+00  -7.9936386653873299e+00  -7.9922426694791309e+00  -7.9909231813829029e+00  -7.9897147754414943e+00  -7.9886488229862174e+00  -7.9877526000130326e+00  -7.9870484796482160e+00  -7.9865530871079571e+00  -7.9862757441352272e+00  -7.9862135874498161e+00  -8.0042819402556091e+00  -8.0042236396132598e+00  -8.0039310370908900e+00  -8.0034092878281644e+00  -8.0026711825470755e+00  -8.0017352704113112e+00  -8.0006256062608667e+00  -7.9993711279434363e+00  -7.9980048325932680e+00  -7.9965628258489421e+00  -7.9950832884679395e+00  -7.9936053918968852e+00  -7.9921681909990951e+00  -7.9908095220156152e+00  -7.9895649342682802e+00  -7.9884666847712147e+00  -7.9875428259415342e+00  -7.9868164159870592e+00  -7.9863048595363448e+00  -7.9860191859871268e+00  -7.9859611343422436e+00  -8.0047513581230110e+00  -8.0046928304599998e+00  -8.0043884073080847e+00  -8.0038415833098728e+00  -8.0030664492100581e+00  -8.0020831217519195e+00  -8.0009171606056935e+00  -7.9995990684823033e+00  -7.9981635246234974e+00  -7.9966484338261123e+00  -7.9950938636247599e+00  -7.9935409175984251e+00  -7.9920305813173123e+00  -7.9906025734357478e+00  -7.9892942343471738e+00  -7.9881394877588310e+00  -7.9871679169834726e+00  -7.9864040031565526e+00  -7.9858665267085982e+00  -7.9855676970598370e+00  -7.9855086282408889e+00  -8.0054198028083796e+00  -8.0053590404570532e+00  -8.0050364697577709e+00  -8.0044541257245250e+00  -8.0036268222409674e+00  -8.0025763737641320e+00  -8.0013304055612160e+00  -7.9999217044823627e+00  -7.9983874206123176e+00  -7.9967680862130379e+00  -7.9951065078504264e+00  -7.9934465839237774e+00  -7.9918320896713873e+00  -7.9903054666228570e+00  -7.9889066528759276e+00  -7.9876719934734908e+00  -7.9866332741136752e+00  -7.9858169114482136e+00  -7.9852432283738608e+00  -7.9849251445117133e+00  -7.9848624289675678e+00  -8.0062853904417430e+00  -8.0062208051398613e+00  -8.0058735734535684e+00  -8.0052447759394187e+00  -8.0043499933623039e+00  -8.0032128818159833e+00  -8.0018635568296421e+00  -8.0003377131661964e+00  -7.9986757092816587e+00  -7.9969215059636412e+00  -7.9951214841968783e+00  -7.9933231864863545e+00  -7.9915740234051107e+00  -7.9899199836989556e+00  -7.9884043855610321e+00  -7.9870667080332405e+00  -7.9859415400014955e+00  -7.9850576589996463e+00  -7.9844371135102037e+00  -7.9840935290718438e+00  -7.9840255677420995e+00  -8.0073489589973565e+00  -8.0072791346895578e+00  -8.0069007295932995e+00  -8.0062142531905653e+00  -8.0052363442078320e+00  -8.0039928004892822e+00  -8.0025166662580727e+00  -8.0008471348831964e+00  -7.9990284768299782e+00  -7.9971088569571487e+00  -7.9951390467701717e+00  -7.9931710660077160e+00  -7.9912567909749352e+00  -7.9894465657198266e+00  -7.9877878517294540e+00  -7.9863239520367806e+00  -7.9850928407138779e+00  -7.9841260962872216e+00  -7.9834477865224178e+00  -7.9830724669005928e+00  -7.9829979564558053e+00  -8.0086135324563053e+00  -8.0085371131919700e+00  -8.0081209899172645e+00  -8.0073653505766558e+00  -8.0062882628678231e+00  -8.0049180803998912e+00  -8.0032912772600877e+00  -8.0014511528492456e+00  -7.9994465881926793e+00  -7.9973307148763233e+00  -7.9951594958709826e+00  -7.9929902459425897e+00  -7.9908801233042377e+00  -7.9888846235925524e+00  -7.9870561072964321e+00  -7.9854423922514730e+00  -7.9840854378463160e+00  -7.9830201142881707e+00  -7.9822728931887470e+00  -7.9818595652988220e+00  -7.9817772768477449e+00  -8.0100837127836186e+00  -8.0099993470431610e+00  -8.0095388508672389e+00  -8.0087022595896311e+00  -8.0075094681120138e+00  -8.0059918738763773e+00  -8.0041899483122076e+00  -8.0021517432415443e+00  -7.9999314635658676e+00  -7.9975879687326303e+00  -7.9951832031504910e+00  -7.9927805795285733e+00  -7.9904433403267614e+00  -7.9882329209370031e+00  -7.9862073387157695e+00  -7.9844196342465734e+00  -7.9829163890785981e+00  -7.9817363133366177e+00  -7.9809087327800059e+00  -7.9804510098437724e+00  -7.9803597204478809e+00  -8.0117650071046445e+00  -8.0116713156306414e+00  -8.0111596096328164e+00  -8.0102299059285009e+00  -8.0089043475109136e+00  -8.0072179230626901e+00  -8.0052157321698889e+00  -8.0029512721959399e+00  -8.0004848088925371e+00  -7.9978816934541435e+00  -7.9952106295794243e+00  -7.9925419115272911e+00  -7.9899456500585870e+00  -7.9874899990713111e+00  -7.9852393966716004e+00  -7.9832528398676796e+00  -7.9815822151541029e+00  -7.9802706808227901e+00  -7.9793509242223024e+00  -7.9788422413440934e+00  -7.9787407077494148e+00  -8.0136630619754960e+00  -8.0135586163170291e+00  -8.0129886247508484e+00  -8.0119532177367301e+00  -8.0104772450512929e+00  -8.0085998975919050e+00  -8.0063716004300769e+00  -8.0038520400951167e+00  -8.0011083049355260e+00  -7.9982130001233198e+00  -7.9952423443294531e+00  -7.9922742642795033e+00  -7.9893864916625450e+00  -7.9866546588652589e+00  -7.9841503914300453e+00  -7.9819394052870134e+00  -7.9800796276189594e+00  -7.9786193405104342e+00  -7.9775951643723531e+00  -7.9770287290302280e+00  -7.9769156749464534e+00  -8.0157827680999105e+00  -8.0156660746964512e+00  -8.0150304410443560e+00  -8.0138762687496818e+00  -8.0122316362149313e+00  -8.0101406295619046e+00  -8.0076597751616205e+00  -8.0048557475410682e+00  -8.0018032399502079e+00  -7.9985828583254408e+00  -7.9952790480308060e+00  -7.9919780603742261e+00  -7.9887659436081915e+00  -7.9857265296398294e+00  -7.9829393897459093e+00  -7.9804777493384993e+00  -7.9784063736646615e+00  -7.9767794270815964e+00  -7.9756381184798855e+00  -7.9750068736426289e+00  -7.9748809827347564e+00  -8.0181271932043057e+00  -8.0179966803006248e+00  -8.0172877357175345e+00  -8.0160012437943013e+00  -8.0141691321324995e+00  -8.0118411891984422e+00  -8.0090809189804091e+00  -8.0059628456324763e+00  -8.0025700612547208e+00  -7.9989918792152483e+00  -7.9953216025173903e+00  -7.9916543973150560e+00  -7.9880852248761318e+00  -7.9847067643971474e+00  -7.9816072620125951e+00  -7.9788682671105251e+00  -7.9765622544493855e+00  -7.9747501377347776e+00  -7.9734784871376467e+00  -7.9727750824588544e+00  -7.9726349939421288e+00  -8.0206962949040363e+00  -8.0205503000995417e+00  -8.0197600353026175e+00  -8.0183271699415055e+00  -8.0162882507903372e+00  -8.0136997388483824e+00  -8.0106331269253914e+00  -8.0071717246660743e+00  -8.0034078140573968e+00  -7.9994400439489741e+00  -7.9953710688505559e+00  -7.9913053929114781e+00  -7.9873473235984935e+00  -7.9835989090184398e+00  -7.9801577368963885e+00  -7.9771145108601669e+00  -7.9745503784455227e+00  -7.9725340175093926e+00  -7.9711183005183921e+00  -7.9703350645149804e+00  -7.9701793689781191e+00  -8.0234853588118700e+00  -8.0233221145338973e+00  -8.0224421440590277e+00  -8.0208483471628202e+00  -8.0185828835909767e+00  -8.0157100929247775e+00  -8.0123106535751614e+00  -8.0084776866212497e+00  -8.0043134294061016e+00  -7.9999263586826732e+00  -7.9954287554129255e+00  -7.9909346236403520e+00  -7.9865577942966279e+00  -7.9824100024008811e+00  -7.9785987314805507e+00  -7.9752246712875179e+00  -7.9723787216575657e+00  -7.9701385444604442e+00  -7.9685644992753915e+00  -7.9676934012842109e+00  -7.9675206338057620e+00  -8.0264830994436487e+00  -8.0263007122076733e+00  -8.0253222131226671e+00  -8.0235523986181043e+00  -8.0210403707279543e+00  -8.0178598970631381e+00  -8.0141022963938902e+00  -8.0098716371928091e+00  -8.0052808167579066e+00  -8.0004484141877743e+00  -7.9954962778713954e+00  -7.9905476815105283e+00  -7.9857257716944154e+00  -7.9811519749015787e+00  -7.9769440383876580e+00  -7.9732134474319505e+00  -7.9700620818280274e+00  -7.9675780945022963e+00  -7.9658308726072757e+00  -7.9648634567054621e+00  -7.9646720829435678e+00  -8.0296693518799458e+00  -8.0294657685618809e+00  -8.0283793648145156e+00  -8.0264178418377625e+00  -8.0236390786127920e+00  -8.0201283214920913e+00  -8.0159893423592052e+00  -8.0113384241339052e+00  -8.0062997117584960e+00  -8.0010018259700857e+00  -7.9955756325405076e+00  -7.9901528768302459e+00  -7.9848652542963192e+00  -7.9798434224328174e+00  -7.9752154666524175e+00  -7.9711044129723030e+00  -7.9676245347216197e+00  -7.9648763848325181e+00  -7.9629404390287704e+00  -7.9618677017954882e+00  -7.9616560904143725e+00  -8.0330122689943515e+00  -8.0327852187830295e+00  -8.0315807652701263e+00  -8.0294110554944140e+00  -8.0263453458688936e+00  -8.0224831425256546e+00  -8.0179429725244908e+00  -8.0128547442289140e+00  -8.0073542299070333e+00  -8.0015795314888347e+00  -7.9956692837239220e+00  -7.9897621121214648e+00  -7.9839967105917182e+00  -7.9785118391934677e+00  -7.9734455477430037e+00  -7.9689330101749984e+00  -7.9651025289599469e+00  -7.9620695221782976e+00  -7.9599283771685254e+00  -7.9587405453133266e+00  -7.9585069164673801e+00  -8.0364649189423858e+00  -8.0362118117711496e+00  -8.0348780055243587e+00  -8.0324824772274930e+00  -8.0291096293838766e+00  -8.0248770649446133e+00  -8.0199210149944395e+00  -8.0143865496203031e+00  -8.0084210890023311e+00  -8.0021709284436611e+00  -7.9957802632872736e+00  -7.9893919412705454e+00  -7.9831490470543685e+00  -7.9771963850870478e+00  -7.9716809261729740e+00  -7.9667503285423624e+00  -7.9625487945336273e+00  -7.9592098231544259e+00  -7.9568456479774996e+00  -7.9555317874600764e+00  -7.9552741213419385e+00  -8.0399611436338656e+00  -8.0396788919239608e+00  -8.0382025956950329e+00  -8.0355618070793859e+00  -8.0318616365905591e+00  -8.0272431239212789e+00  -8.0218639546871433e+00  -8.0158859213080209e+00  -8.0094675006365570e+00  -8.0027608588865800e+00  -7.9959122759053223e+00  -7.9890647990706931e+00  -7.9823619356877913e+00  -7.9759512283400840e+00  -7.9699865429628618e+00  -7.9646278484814719e+00  -7.9600372931847847e+00  -7.9563706389030999e+00  -7.9537635069120878e+00  -7.9523108570700476e+00  -7.9520267373423774e+00  -8.0434104774277220e+00  -8.0430951819718359e+00  -8.0414602776955828e+00  -8.0385518926242909e+00  -8.0345041742149839e+00  -8.0294890149446463e+00  -8.0236901756643508e+00  -8.0172874719792571e+00  -8.0104488155262228e+00  -8.0033284891611682e+00  -7.9960697944370001e+00  -7.9888103253133398e+00  -7.9816884051206065e+00  -7.9748494101446115e+00  -7.9684506638909927e+00  -7.9626633380803389e+00  -7.9576695111454736e+00  -7.9536525233752648e+00  -7.9507792063504068e+00  -7.9491720713966618e+00  -7.9488584229111936e+00  -8.0466918092717545e+00  -8.0463381982784199e+00  -8.0445236761775671e+00  -8.0413208092067539e+00  -8.0369053850785619e+00  -8.0314902728641187e+00  -8.0252905811387674e+00  -8.0185045401908894e+00  -8.0113061730847459e+00  -8.0038462215234905e+00  -7.9962581145269613e+00  -7.9886665936821490e+00  -7.9811974143039892e+00  -7.9739869745618588e+00  -7.9671906514778321e+00  -7.9609880510317241e+00  -7.9555824879821184e+00  -7.9511912672305236e+00  -7.9480233777008138e+00  -7.9462413061166286e+00  -7.9458939589297346e+00  -8.0496452470230579e+00  -8.0492456446152740e+00  -8.0472224479376155e+00  -8.0436913826828018e+00  -8.0388890196122844e+00  -8.0330824442486541e+00  -8.0265231033744726e+00  -8.0194258181101752e+00  -8.0119646976720151e+00  -8.0042789193374766e+00  -7.9964833139097333e+00  -7.9886808638826254e+00  -7.9809757974986866e+00  -7.9734867085899683e+00  -7.9663590300703691e+00  -7.9597752076512531e+00  -7.9539590738316104e+00  -7.9491686343024064e+00  -7.9456699481559836e+00  -7.9436847539582391e+00  -7.9432977135554825e+00  -8.0520612000500336e+00  -8.0516035278495561e+00  -8.0493293782870836e+00  -8.0454269960278832e+00  -8.0402225213809295e+00  -8.0340529619774959e+00  -8.0272083449532623e+00  -8.0199137149943809e+00  -8.0123332465271364e+00  -8.0045839482513124e+00  -7.9967520308025524e+00  -7.9889091887242882e+00  -7.9811284353997554e+00  -7.9735001194839885e+00  -7.9661486599955271e+00  -7.9592492622155282e+00  -7.9530409302484397e+00  -7.9478271726100918e+00  -7.9439501787109528e+00  -7.9417210431475711e+00  -7.9412852397717177e+00  -8.0536648058639013e+00  -8.0531283844204804e+00  -8.0505394536081880e+00  -8.0462120327579942e+00  -8.0406033661559153e+00  -8.0341347346014071e+00  -8.0271289339066865e+00  -8.0198067882838657e+00  -8.0123073480036826e+00  -8.0047128156100946e+00  -7.9970709455810143e+00  -7.9894138505363452e+00  -7.9817747544580238e+00  -7.9742050966934208e+00  -7.9667943916165109e+00  -7.9596942300597338e+00  -7.9531444386295176e+00  -7.9474913190007781e+00  -7.9431739289301815e+00  -7.9406392644246839e+00  -7.9401403134909083e+00  -8.0540919761589560e+00  -8.0534377130028432e+00  -8.0504361938243054e+00  -8.0456252721519252e+00  -8.0396462882270061e+00  -8.0330062533094164e+00  -8.0260374076608159e+00  -8.0189299326283301e+00  -8.0117776296046692e+00  -8.0046154344822913e+00  -7.9974458416599337e+00  -7.9902573039268079e+00  -7.9830388326968524e+00  -7.9757950280128114e+00  -7.9685659346387672e+00  -7.9614563798144076e+00  -7.9546779529801146e+00  -7.9485980454413339e+00  -7.9437645169272537e+00  -7.9408284419862145e+00  -7.9402423413465186e+00  -8.0528491002017528e+00  -8.0519940285017757e+00  -8.0484349316083819e+00  -8.0431073165505804e+00  -8.0368802019864738e+00  -8.0303084164292482e+00  -8.0236805539460878e+00  -8.0171172254461052e+00  -8.0106462504523623e+00  -8.0042479897398557e+00  -7.9978801594906663e+00  -7.9914913800500091e+00  -7.9850300307668070e+00  -7.9784534164713126e+00  -7.9717425241122166e+00  -7.9649299698247340e+00  -7.9581525985352606e+00  -7.9517398059247171e+00  -7.9463206622131626e+00  -7.9428317999313434e+00  -7.9421157937035431e+00  -8.0492353235387384e+00  -8.0479841092430693e+00  -8.0436893180014550e+00  -8.0379369131348852e+00  -8.0317786452404825e+00  -8.0256969006978007e+00  -8.0198507989236969e+00  -8.0142518680282873e+00  -8.0088525735475482e+00  -8.0035845215994321e+00  -7.9983729920159004e+00  -7.9931414243410899e+00  -7.9878122908056390e+00  -7.9823079799946246e+00  -7.9765554911343548e+00  -7.9705022340068474e+00  -7.9641596520731728e+00  -7.9577108714647169e+00  -7.9517324459118406e+00  -7.9474629763696107e+00  -7.9465333998082519e+00  -8.0421475383485905e+00  -8.0400351459520039e+00  -8.0349702579775357e+00  -8.0292787803412153e+00  -8.0238767068585197e+00  -8.0189567964047654e+00  -8.0144723711361525e+00  -8.0103221199351147e+00  -8.0064047043632698e+00  -8.0026297300505735e+00  -7.9989160416694700e+00  -7.9951868555974812e+00  -7.9913642043669242e+00  -7.9873631265932854e+00  -7.9830859477983136e+00  -7.9784189577173965e+00  -7.9732416393741019e+00  -7.9674862972379703e+00  -7.9613759153536439e+00  -7.9561081239523652e+00  -7.9547742926328784e+00  -8.0293353467672510e+00  -8.0255715801963525e+00  -8.0206946207773395e+00  -8.0164878531723485e+00  -8.0130571185879269e+00  -8.0101926283434288e+00  -8.0077085144110409e+00  -8.0054750560433785e+00  -8.0034022284743198e+00  -8.0014236172470454e+00  -7.9994855418546509e+00  -7.9975396088524207e+00  -7.9955367226292413e+00  -7.9934208957821742e+00  -7.9911210363116743e+00  -7.9885380064484384e+00  -7.9855228632611333e+00  -7.9818451368668804e+00  -7.9771947548733291e+00  -7.9716280187863022e+00  -7.9694847012903924e+00  -8.0000000000000000e+00  -8.0000000000000000e+00  -8.0000000000000000e+00  -8.0000000000000000e+00  -8.0000000000000000e+00  -8.0000000000000000e+00  -8.0000000000000000e+00  -8.0000000000000000e+00  -8.0000000000000000e+00  -8.0000000000000000e+00  -8.0000000000000000e+00  -8.0000000000000000e+00  -8.0000000000000000e+00  -8.0000000000000000e+00  -8.0000000000000000e+00  -8.0000000000000000e+00  -8.0000000000000000e+00  -8.0000000000000000e+00  -8.0000000000000000e+00  -8.0000000000000000e+00  -8.0000000000000000e+00  </DataArray> 
</PointData> 
</Piece>
</UnstructuredGrid>
</VTKFile>