<?xml version="1.0"?>
<VTKFile type="UnstructuredGrid"  version="0.1"  >
<UnstructuredGrid>
<Piece  NumberOfPoints="651" NumberOfCells="1200">
<Points>
<DataArray  type="Float64"  NumberOfComponents="3"  format="ascii">0 0 0  50000 0 0  100000 0 0  150000 0 0  200000 0 0  250000 0 0  300000 0 0  350000 0 0  400000 0 0  450000 0 0  500000 0 0  550000 0 0  600000 0 0  650000 0 0  700000 0 0  750000 0 0  800000 0 0  850000 0 0  900000 0 0  950000 0 0  1000000 0 0  0 50000 0  50000 50000 0  100000 50000 0  150000 50000 0  200000 50000 0  250000 50000 0  300000 50000 0  350000 50000 0  400000 50000 0  450000 50000 0  500000 50000 0  550000 50000 0  600000 50000 0  650000 50000 0  700000 50000 0  750000 50000 0  800000 50000 0  850000 50000 0  900000 50000 0  950000 50000 0  1000000 50000 0  0 100000 0  50000 100000 0  100000 100000 0  150000 100000 0  200000 100000 0  250000 100000 0  300000 100000 0  350000 100000 0  400000 100000 0  450000 100000 0  500000 100000 0  550000 100000 0  600000 100000 0  650000 100000 0  700000 100000 0  750000 100000 0  800000 100000 0  850000 100000 0  900000 100000 0  950000 100000 0  1000000 100000 0  0 150000 0  50000 150000 0  100000 150000 0  150000 150000 0  200000 150000 0  250000 150000 0  300000 150000 0  350000 150000 0  400000 150000 0  450000 150000 0  500000 150000 0  550000 150000 0  600000 150000 0  650000 150000 0  700000 150000 0  750000 150000 0  800000 150000 0  850000 150000 0  900000 150000 0  950000 150000 0  1000000 150000 0  0 200000 0  50000 200000 0  100000 200000 0  150000 200000 0  200000 200000 0  250000 200000 0  300000 200000 0  350000 200000 0  400000 200000 0  450000 200000 0  500000 200000 0  550000 200000 0  600000 200000 0  650000 200000 0  700000 200000 0  750000 200000 0  800000 200000 0  850000 200000 0  900000 200000 0  950000 200000 0  1000000 200000 0  0 250000 0  50000 250000 0  100000 250000 0  150000 250000 0  200000 250000 0  250000 250000 0  300000 250000 0  350000 250000 0  400000 250000 0  450000 250000 0  500000 250000 0  550000 250000 0  600000 250000 0  650000 250000 0  700000 250000 0  750000 250000 0  800000 250000 0  850000 250000 0  900000 250000 0  950000 250000 0  1000000 250000 0  0 300000 0  50000 300000 0  100000 300000 0  150000 300000 0  200000 300000 0  250000 300000 0  300000 300000 0  350000 300000 0  400000 300000 0  450000 300000 0  500000 300000 0  550000 300000 0  600000 300000 0  650000 300000 0  700000 300000 0  750000 300000 0  800000 300000 0  850000 300000 0  900000 300000 0  950000 300000 0  1000000 300000 0  0 350000 0  50000 350000 0  100000 350000 0  150000 350000 0  200000 350000 0  250000 350000 0  300000 350000 0  350000 350000 0  400000 350000 0  450000 350000 0  500000 350000 0  550000 350000 0  600000 350000 0  650000 350000 0  700000 350000 0  750000 350000 0  800000 350000 0  850000 350000 0  900000 350000 0  950000 350000 0  1000000 350000 0  0 400000 0  50000 400000 0  100000 400000 0  150000 400000 0  200000 400000 0  250000 400000 0  300000 400000 0  350000 400000 0  400000 400000 0  450000 400000 0  500000 400000 0  550000 400000 0  600000 400000 0  650000 400000 0  700000 400000 0  750000 400000 0  800000 400000 0  850000 400000 0  900000 400000 0  950000 400000 0  1000000 400000 0  0 450000 0  50000 450000 0  100000 450000 0  150000 450000 0  200000 450000 0  250000 450000 0  300000 450000 0  350000 450000 0  400000 450000 0  450000 450000 0  500000 450000 0  550000 450000 0  600000 450000 0  650000 450000 0  700000 450000 0  750000 450000 0  800000 450000 0  850000 450000 0  900000 450000 0  950000 450000 0  1000000 450000 0  0 500000 0  50000 500000 0  100000 500000 0  150000 500000 0  200000 500000 0  250000 500000 0  300000 500000 0  350000 500000 0  400000 500000 0  450000 500000 0  500000 500000 0  550000 500000 0  600000 500000 0  650000 500000 0  700000 500000 0  750000 500000 0  800000 500000 0  850000 500000 0  900000 500000 0  950000 500000 0  1000000 500000 0  0 550000 0  50000 550000 0  100000 550000 0  150000 550000 0  200000 550000 0  250000 550000 0  300000 550000 0  350000 550000 0  400000 550000 0  450000 550000 0  500000 550000 0  550000 550000 0  600000 550000 0  650000 550000 0  700000 550000 0  750000 550000 0  800000 550000 0  850000 550000 0  900000 550000 0  950000 550000 0  1000000 550000 0  0 600000 0  50000 600000 0  100000 600000 0  150000 600000 0  200000 600000 0  250000 600000 0  300000 600000 0  350000 600000 0  400000 600000 0  450000 600000 0  500000 600000 0  550000 600000 0  600000 600000 0  650000 600000 0  700000 600000 0  750000 600000 0  800000 600000 0  850000 600000 0  900000 600000 0  950000 600000 0  1000000 600000 0  0 650000 0  50000 650000 0  100000 650000 0  150000 650000 0  200000 650000 0  250000 650000 0  300000 650000 0  350000 650000 0  400000 650000 0  450000 650000 0  500000 650000 0  550000 650000 0  600000 650000 0  650000 650000 0  700000 650000 0  750000 650000 0  800000 650000 0  850000 650000 0  900000 650000 0  950000 650000 0  1000000 650000 0  0 700000 0  50000 700000 0  100000 700000 0  150000 700000 0  200000 700000 0  250000 700000 0  300000 700000 0  350000 700000 0  400000 700000 0  450000 700000 0  500000 700000 0  550000 700000 0  600000 700000 0  650000 700000 0  700000 700000 0  750000 700000 0  800000 700000 0  850000 700000 0  900000 700000 0  950000 700000 0  1000000 700000 0  0 750000 0  50000 750000 0  100000 750000 0  150000 750000 0  200000 750000 0  250000 750000 0  300000 750000 0  350000 750000 0  400000 750000 0  450000 750000 0  500000 750000 0  550000 750000 0  600000 750000 0  650000 750000 0  700000 750000 0  750000 750000 0  800000 750000 0  850000 750000 0  900000 750000 0  950000 750000 0  1000000 750000 0  0 800000 0  50000 800000 0  100000 800000 0  150000 800000 0  200000 800000 0  250000 800000 0  300000 800000 0  350000 800000 0  400000 800000 0  450000 800000 0  500000 800000 0  550000 800000 0  600000 800000 0  650000 800000 0  700000 800000 0  750000 800000 0  800000 800000 0  850000 800000 0  900000 800000 0  950000 800000 0  1000000 800000 0  0 850000 0  50000 850000 0  100000 850000 0  150000 850000 0  200000 850000 0  250000 850000 0  300000 850000 0  350000 850000 0  400000 850000 0  450000 850000 0  500000 850000 0  550000 850000 0  600000 850000 0  650000 850000 0  700000 850000 0  750000 850000 0  800000 850000 0  850000 850000 0  900000 850000 0  950000 850000 0  1000000 850000 0  0 900000 0  50000 900000 0  100000 900000 0  150000 900000 0  200000 900000 0  250000 900000 0  300000 900000 0  350000 900000 0  400000 900000 0  450000 900000 0  500000 900000 0  550000 900000 0  600000 900000 0  650000 900000 0  700000 900000 0  750000 900000 0  800000 900000 0  850000 900000 0  900000 900000 0  950000 900000 0  1000000 900000 0  0 950000 0  50000 950000 0  100000 950000 0  150000 950000 0  200000 950000 0  250000 950000 0  300000 950000 0  350000 950000 0  400000 950000 0  450000 950000 0  500000 950000 0  550000 950000 0  600000 950000 0  650000 950000 0  700000 950000 0  750000 950000 0  800000 950000 0  850000 950000 0  900000 950000 0  950000 950000 0  1000000 950000 0  0 1000000 0  50000 1000000 0  100000 1000000 0  150000 1000000 0  200000 1000000 0  250000 1000000 0  300000 1000000 0  350000 1000000 0  400000 1000000 0  450000 1000000 0  500000 1000000 0  550000 1000000 0  600000 1000000 0  650000 1000000 0  700000 1000000 0  750000 1000000 0  800000 1000000 0  850000 1000000 0  900000 1000000 0  950000 1000000 0  1000000 1000000 0  0 1050000 0  50000 1050000 0  100000 1050000 0  150000 1050000 0  200000 1050000 0  250000 1050000 0  300000 1050000 0  350000 1050000 0  400000 1050000 0  450000 1050000 0  500000 1050000 0  550000 1050000 0  600000 1050000 0  650000 1050000 0  700000 1050000 0  750000 1050000 0  800000 1050000 0  850000 1050000 0  900000 1050000 0  950000 1050000 0  1000000 1050000 0  0 1100000 0  50000 1100000 0  100000 1100000 0  150000 1100000 0  200000 1100000 0  250000 1100000 0  300000 1100000 0  350000 1100000 0  400000 1100000 0  450000 1100000 0  500000 1100000 0  550000 1100000 0  600000 1100000 0  650000 1100000 0  700000 1100000 0  750000 1100000 0  800000 1100000 0  850000 1100000 0  900000 1100000 0  950000 1100000 0  1000000 1100000 0  0 1150000 0  50000 1150000 0  100000 1150000 0  150000 1150000 0  200000 1150000 0  250000 1150000 0  300000 1150000 0  350000 1150000 0  400000 1150000 0  450000 1150000 0  500000 1150000 0  550000 1150000 0  600000 1150000 0  650000 1150000 0  700000 1150000 0  750000 1150000 0  800000 1150000 0  850000 1150000 0  900000 1150000 0  950000 1150000 0  1000000 1150000 0  0 1200000 0  50000 1200000 0  100000 1200000 0  150000 1200000 0  200000 1200000 0  250000 1200000 0  300000 1200000 0  350000 1200000 0  400000 1200000 0  450000 1200000 0  500000 1200000 0  550000 1200000 0  600000 1200000 0  650000 1200000 0  700000 1200000 0  750000 1200000 0  800000 1200000 0  850000 1200000 0  900000 1200000 0  950000 1200000 0  1000000 1200000 0  0 1250000 0  50000 1250000 0  100000 1250000 0  150000 1250000 0  200000 1250000 0  250000 1250000 0  300000 1250000 0  350000 1250000 0  400000 1250000 0  450000 1250000 0  500000 1250000 0  550000 1250000 0  600000 1250000 0  650000 1250000 0  700000 1250000 0  750000 1250000 0  800000 1250000 0  850000 1250000 0  900000 1250000 0  950000 1250000 0  1000000 1250000 0  0 1300000 0  50000 1300000 0  100000 1300000 0  150000 1300000 0  200000 1300000 0  250000 1300000 0  300000 1300000 0  350000 1300000 0  400000 1300000 0  450000 1300000 0  500000 1300000 0  550000 1300000 0  600000 1300000 0  650000 1300000 0  700000 1300000 0  750000 1300000 0  800000 1300000 0  850000 1300000 0  900000 1300000 0  950000 1300000 0  1000000 1300000 0  0 1350000 0  50000 1350000 0  100000 1350000 0  150000 1350000 0  200000 1350000 0  250000 1350000 0  300000 1350000 0  350000 1350000 0  400000 1350000 0  450000 1350000 0  500000 1350000 0  550000 1350000 0  600000 1350000 0  650000 1350000 0  700000 135
[...]
<PointData  Scalars="f_1511"> 
<DataArray  type="Float64"  Name="f_1511"  format="ascii">-8.0435684402823551e+00  -8.0429600194431980e+00  -8.0399515325669686e+00  -8.0345340426862091e+00  -8.0268484404153337e+00  -8.0170995216197909e+00  -8.0055464908048819e+00  -7.9924955854619455e+00  -7.9782918771213307e+00  -7.9633100882053549e+00  -7.9479446550354993e+00  -7.9325993062104061e+00  -7.9176764274688320e+00  -7.9035664869812194e+00  -7.8906378055042783e+00  -7.8792269955038305e+00  -7.8696305439022760e+00  -7.8620984849370972e+00  -7.8568316783083549e+00  -7.8539720100238455e+00  -7.8533553013147861e+00  -8.0441456675685767e+00  -8.0435510596626081e+00  -8.0404994035733122e+00  -8.0350461423351884e+00  -8.0273208116775834e+00  -8.0175243637625151e+00  -8.0059150570803812e+00  -7.9927995963971625e+00  -7.9785242396945879e+00  -7.9634652977819069e+00  -7.9480190336322103e+00  -7.9325911347276321e+00  -7.9175859921731497e+00  -7.9033960416645872e+00  -7.8903914303253631e+00  -7.8789102758289165e+00  -7.8692497493291187e+00  -7.8616579297309874e+00  -7.8563248228783138e+00  -7.8533638335439235e+00  -7.8527471725465290e+00  -8.0469708906133341e+00  -8.0464184406488037e+00  -8.0432969256416396e+00  -8.0376791686452176e+00  -8.0297204342790494e+00  -8.0196319702449443e+00  -8.0076798326617080e+00  -7.9941789794407399e+00  -7.9794850161977617e+00  -7.9639845911751275e+00  -7.9480849930142767e+00  -7.9322032877581528e+00  -7.9167552642121697e+00  -7.9021444479707688e+00  -7.8887514520169768e+00  -7.8769239497023191e+00  -7.8669675841891999e+00  -7.8591381322173408e+00  -7.8536349235895546e+00  -7.8505925635523219e+00  -7.8500407244984842e+00  -8.0520079823224844e+00  -8.0514621804570154e+00  -8.0482240627351569e+00  -8.0423394631893679e+00  -8.0339794810769209e+00  -8.0233748948326244e+00  -8.0108095126478354e+00  -7.9966159985524357e+00  -7.9811685600598938e+00  -7.9648735171860192e+00  -7.9481586752292062e+00  -7.9314620608888706e+00  -7.9152204054516799e+00  -7.8998576952602519e+00  -7.8857741077139494e+00  -7.8733356948368041e+00  -7.8628652647691517e+00  -7.8546349578080132e+00  -7.8488602536956282e+00  -7.8456887684632068e+00  -7.8451367720171783e+00  -8.0591771889222770e+00  -8.0586160736652079e+00  -8.0551939988261765e+00  -8.0489334050238970e+00  -8.0400119924349074e+00  -8.0286804149922091e+00  -8.0152464816038673e+00  -8.0000687393198806e+00  -7.9835488605060734e+00  -7.9661220217867070e+00  -7.9482459053763659e+00  -7.9303889238393239e+00  -7.9130181221617359e+00  -7.8965871346175760e+00  -7.8815245626242358e+00  -7.8682231757985175e+00  -7.8570303773299637e+00  -7.8482401788322704e+00  -7.8420853084265358e+00  -7.8387194721922882e+00  -7.8381366707335536e+00  -8.0684325879250913e+00  -8.0678397294329276e+00  -8.0641636586941683e+00  -8.0574112431052924e+00  -8.0477668364951516e+00  -8.0355015496369635e+00  -8.0209513379221455e+00  -8.0045072919670748e+00  -7.9866065429929698e+00  -7.9677217949388810e+00  -7.9483496103902294e+00  -7.9289979097654140e+00  -7.9101731207217325e+00  -7.8923673667500971e+00  -7.8760460699000152e+00  -7.8616363511102376e+00  -7.8495165640398907e+00  -7.8400068749543852e+00  -7.8333587010525951e+00  -7.8297315021304987e+00  -7.8291012923409884e+00  -8.0797596361005102e+00  -8.0791210781325695e+00  -8.0751216232817509e+00  -8.0677585352523842e+00  -8.0572264909832398e+00  -8.0438199811169717e+00  -8.0279073970809982e+00  -8.0099184297756167e+00  -7.9903330365675469e+00  -7.9696696184406717e+00  -7.9484722183965077e+00  -7.9272970340312954e+00  -7.9066986066559126e+00  -7.8872160378002203e+00  -7.8693595745149425e+00  -7.8535978933247002e+00  -7.8403463097552866e+00  -7.8299556082464656e+00  -7.8226989099807014e+00  -7.8187442856587523e+00  -7.8180542136432152e+00  -8.0931687212681052e+00  -8.0924715522624151e+00  -8.0880799561852914e+00  -8.0799854815363439e+00  -8.0683978764855500e+00  -8.0536395495395006e+00  -8.0361164622257029e+00  -8.0163030919528619e+00  -7.9947293846281839e+00  -7.9719672934493442e+00  -7.9486166042016624e+00  -7.9252902282818978e+00  -7.9025992370106621e+00  -7.8811379162933690e+00  -7.8614691186678458e+00  -7.8441101778063942e+00  -7.8295195391852657e+00  -7.8180837074214828e+00  -7.8101017443156415e+00  -7.8057542440385541e+00  -7.8049930842080091e+00  -8.1086880091897342e+00  -8.1079196599301593e+00  -8.1030669848961505e+00  -8.0941183854233127e+00  -8.0813036684244430e+00  -8.0649786418482599e+00  -8.0455928067291893e+00  -8.0236720453429538e+00  -7.9998035382720456e+00  -7.9746205087673818e+00  -7.9487864916659241e+00  -7.9229792480088079e+00  -7.8978745104166590e+00  -7.8741297425982992e+00  -7.8523681012042186e+00  -7.8331627950816323e+00  -7.8170219541047050e+00  -7.8043735861900201e+00  -7.7955477263251094e+00  -7.7907416929688553e+00  -7.7898985662727789e+00  -8.1263557881634441e+00  -8.1255036405988648e+00  -8.1201199435664932e+00  -8.1101918642106927e+00  -8.0959743708648890e+00  -8.0778628022147956e+00  -8.0563568915270309e+00  -8.0320410519237679e+00  -8.0055671527092418e+00  -7.9776373502418352e+00  -7.9489867000646504e+00  -7.9203656303248380e+00  -7.8925223614884690e+00  -7.8661853292755408e+00  -7.8420456784371204e+00  -7.8207399367735304e+00  -7.8028329510635199e+00  -7.7888006708805912e+00  -7.7790097424594107e+00  -7.7736785689155186e+00  -7.7727426137839322e+00  -8.1462120255778263e+00  -8.1452631633345280e+00  -8.1392768433467353e+00  -8.1282407195115702e+00  -8.1124402985542261e+00  -8.0923172091510409e+00  -8.0684288052068549e+00  -8.0414256763209924e+00  -8.0120320560374250e+00  -7.9810266131443228e+00  -7.9492233780787895e+00  -7.9174528280971836e+00  -7.8865430778159338e+00  -7.8573010519370028e+00  -7.8304935336772390e+00  -7.8068280749120591e+00  -7.7869338067701781e+00  -7.7713417503882409e+00  -7.7604614293954919e+00  -7.7545369806626656e+00  -7.7534972000200089e+00  -8.1682887528955863e+00  -8.1672297846490522e+00  -8.1605671085921880e+00  -8.1482907473903357e+00  -8.1307226812478266e+00  -8.1083583820587481e+00  -8.0818209951986422e+00  -8.0518354740096321e+00  -8.0192062593079054e+00  -7.9847958876327212e+00  -7.9495042852026767e+00  -7.9142486674869819e+00  -7.8799437778860106e+00  -7.8474820720712346e+00  -7.8177134787624105e+00  -7.7914245299330034e+00  -7.7693168189883099e+00  -7.7519843968539917e+00  -7.7398867466035144e+00  -7.7332989333143320e+00  -7.7321441158166060e+00  -8.1925988431412460e+00  -8.1914157651039563e+00  -8.1840005266124596e+00  -8.1703478976946915e+00  -8.1508232139742933e+00  -8.1259844626893294e+00  -8.0965297407200421e+00  -8.0632671515355376e+00  -8.0270892478292897e+00  -7.9889493048490570e+00  -7.9498391530661099e+00  -7.9107683027888509e+00  -7.8727437598335408e+00  -7.8367497288307888e+00  -7.8037264350564506e+00  -7.7745475517905209e+00  -7.7499960433430504e+00  -7.7307380330825772e+00  -7.7172912045166022e+00  -7.7099676591622588e+00  -7.7086863351822412e+00  -8.2191226915354250e+00  -8.2178007655662029e+00  -8.2095540011171568e+00  -8.1943851880456453e+00  -8.1727113854660427e+00  -8.1451633934399865e+00  -8.1125247532920728e+00  -8.0756962063148467e+00  -8.0356662189001185e+00  -7.9934847851209199e+00  -7.9502401509420295e+00  -7.9070378725424817e+00  -7.8649810919082013e+00  -7.8251506133734727e+00  -7.7885834121131801e+00  -7.7562485839610185e+00  -7.7290202847880769e+00  -7.7076472413168586e+00  -7.6927152676519013e+00  -7.6845810450725365e+00  -7.6831614502516397e+00  -8.2477922492511677e+00  -8.2463158715458622e+00  -8.2371555154003886e+00  -8.2203267007181946e+00  -8.1963088445791339e+00  -8.1658182378686455e+00  -8.1297362086530889e+00  -8.0890664754809745e+00  -8.0449008698837634e+00  -7.9983905954422569e+00  -7.9507224779213814e+00  -7.9030990927190397e+00  -7.8567208777474375e+00  -7.8127679237477698e+00  -7.7723791964244429e+00  -7.7366274717511629e+00  -7.7064890858706256e+00  -7.6828079867415981e+00  -7.6662505287860245e+00  -7.6572277093394385e+00  -7.6556577256147325e+00  -8.2784717879215055e+00  -8.2768243127897119e+00  -8.2666646034984250e+00  -8.2480278624110319e+00  -8.2214699294680695e+00  -8.1878087602992924e+00  -8.1480384031341959e+00  -8.1032769376443472e+00  -8.0547262831809991e+00  -8.0036409944281033e+00  -7.9513051035641897e+00  -7.8990150521184823e+00  -7.8480656916766076e+00  -7.7997357939363798e+00  -7.7552695867781241e+00  -7.7158515171415898e+00  -7.6825725958190860e+00  -7.6563875574914952e+00  -7.6380593554158009e+00  -7.6280663614237616e+00  -7.6263333938065490e+00  -8.3109346804517568e+00  -8.3090981425527044e+00  -8.2978484835605659e+00  -8.2772510239960297e+00  -8.2479572902098841e+00  -8.2109082093896788e+00  -8.1672290996507186e+00  -8.1181650316531027e+00  -8.0650334128437091e+00  -8.0091907245715248e+00  -7.9520116752792376e+00  -7.8948774893241813e+00  -7.8391687244408503e+00  -7.7862573823790928e+00  -7.7374931578593555e+00  -7.6941794706942641e+00  -7.6575364086564184e+00  -7.6286492093309271e+00  -7.6083988557367359e+00  -7.5973491864357117e+00  -7.5954399131557935e+00  -8.3448353552294883e+00  -8.3427899961176930e+00  -8.3303528002203109e+00  -8.3076350962159538e+00  -8.2754112748698780e+00  -8.2347740494397748e+00  -8.1870035167163042e+00  -8.1334857240516438e+00  -8.0756566873160782e+00  -8.0149681224178995e+00  -7.9528715990593666e+00  -7.8908158020949308e+00  -7.8302501668740074e+00  -7.7726275519792498e+00  -7.7193986724166272e+00  -7.6719917812626495e+00  -7.6317727403996534e+00  -7.5999827749569349e+00  -7.5776502263182595e+00  -7.5654501546104758e+00  -7.5633500552752233e+00  -8.3796753819044856e+00  -8.3773988208992574e+00  -8.3636655981411874e+00  -8.3386576096862051e+00  -8.3033114066730889e+00  -8.2589111853258022e+00  -8.2069218897134295e+00  -8.1488856582967326e+00  -8.0863563773806781e+00  -8.0208666952310583e+00  -7.9539212722360224e+00  -7.8870079164890088e+00  -7.8216172063323519e+00  -7.7592608893046133e+00  -7.7014793325279243e+00  -7.6498286785151270e+00  -7.6058397029774953e+00  -7.5709429101433905e+00  -7.5463548835045486e+00  -7.5328994085672356e+00  -7.5305919230736595e+00  -8.4147623093601904e+00  -8.4122280799079796e+00  -8.3970726011773671e+00  -8.3695869649026253e+00  -8.3309278401055327e+00  -8.2826261092876621e+00  -8.2263697422284814e+00  -8.1638721177202687e+00  -8.0967977709158330e+00  -8.0267352256479860e+00  -7.9552053891912484e+00  -7.8836928322408930e+00  -7.8136875691374854e+00  -7.7467254294439929e+00  -7.6844149312214176e+00  -7.6284378904415506e+00  -7.5805109673999205e+00  -7.5422973045219788e+00  -7.5152593549394533e+00  -7.5004253151666580e+00  -7.4978904025485482e+00  -8.4491592661090156e+00  -8.4463342123046594e+00  -8.4296008895572161e+00  -8.3994216640198403e+00  -8.3572601506297275e+00  -8.3049705398927571e+00  -8.2445107314412898e+00  -8.1777775237791701e+00  -8.1065280702285669e+00  -8.0323669239809252e+00  -7.9567781330277434e+00  -7.8811840135610955e+00  -7.8070155570544673e+00  -7.7357814700741283e+00  -7.6691223704061020e+00  -7.6088338649004248e+00  -7.5568388401589530e+00  -7.5150882721393186e+00  -7.4853719330761228e+00  -7.4690065571811299e+00  -7.4662182831183292e+00  -8.4816221865285311e+00  -8.4784617486601679e+00  -8.4599462249497535e+00  -8.4268117106188161e+00  -8.3809602798606591e+00  -8.3246739333128463e+00  -8.2602337150527401e+00  -8.1897222636429472e+00  -8.1149536265197355e+00  -8.0374890117735145e+00  -7.9587038811759765e+00  -7.8798815927991566e+00  -7.8023175945783150e+00  -7.7274227407526093e+00  -7.6568134213763033e+00  -7.5923699416580890e+00  -7.5362347248447357e+00  -7.4907129954306821e+00  -7.4580360049859173e+00  -7.4399381309226866e+00  -7.4368606622093321e+00  -8.5105193209048942e+00  -8.5069586852175405e+00  -8.4863756984732124e+00  -8.4499547486700699e+00  -8.4002363206239288e+00  -8.3400666323080443e+00  -8.2720995081297222e+00  -8.1985825538070891e+00  -8.1213231040802185e+00  -8.0417555834595298e+00  -7.9610567665005370e+00  -7.8802793367319213e+00  -7.8004908632994443e+00  -7.7229130639579537e+00  -7.6490549947389948e+00  -7.5808232149062622e+00  -7.5205719548933851e+00  -7.4710309144478506e+00  -7.4350286754204253e+00  -7.4149180358806150e+00  -7.4114989411899055e+00  -8.5337233702580839e+00  -8.5296598020317074e+00  -8.5065902791139649e+00  -8.4664555583646557e+00  -8.4127353880983193e+00  -8.3490013438612927e+00  -8.2783003234954453e+00  -8.2029767949349068e+00  -8.1247268585612229e+00  -8.0447487939970976e+00  -7.9639180546493602e+00  -7.8829593148689083e+00  -7.8026130406706411e+00  -7.7238041979726377e+00  -7.6478196187026626e+00  -7.5764869360163463e+00  -7.5123162711875686e+00  -7.4585122582897956e+00  -7.4187007360638191e+00  -7.3961673967545183e+00  -7.3923261601379782e+00  -8.5484579841333339e+00  -8.5437122046880898e+00  -8.5175176522746199e+00  -8.4731329207315778e+00  -8.4154109215440531e+00  -8.3487941496185751e+00  -8.2766586214856606e+00  -8.2012943289023088e+00  -8.1241291956709123e+00  -8.0459961982275008e+00  -7.9673699195551535e+00  -7.8885634675535758e+00  -7.8099033115591547e+00  -7.7319082602212159e+00  -7.6554988314971011e+00  -7.5822527007299350e+00  -7.5146858147726316e+00  -7.4564505732241608e+00  -7.4121895556668695e+00  -7.3866096077213088e+00  -7.3822169909381294e+00  -8.5510627548901113e+00  -8.5452844297004056e+00  -8.5149783037618256e+00  -8.4657582666720774e+00  -8.4044027219234554e+00  -8.3362348950585243e+00  -8.2647147623213613e+00  -8.1918041577502514e+00  -8.1184567301740440e+00  -8.0450144426864050e+00  -7.9714840647956269e+00  -7.8977281880179095e+00  -7.8236162339583686e+00  -7.7491805341202333e+00  -7.6748245454808659e+00  -7.6016338292256194e+00  -7.5318251736565518e+00  -7.4692734209090901e+00  -7.4197701411251566e+00  -7.3901642340324276e+00  -7.3850022439535303e+00  -8.5366015298674416e+00  -8.5290127753901537e+00  -8.4931224204553004e+00  -8.4387403994441126e+00  -8.3750216850331132e+00  -8.3077716567466027e+00  -8.2399840519899552e+00  -8.1728929459770985e+00  -8.1067678507377980e+00  -8.0413888042415724e+00  -7.9763040067734643e+00  -7.9109689219248782e+00  -7.8448363673375514e+00  -7.7774503198725444e+00  -7.7085993237474639e+00  -7.6386110799312643e+00  -7.5689133404677342e+00  -7.5029825814861759e+00  -7.4474845188029608e+00  -7.4122908034666990e+00  -7.4059658449353094e+00  -8.4981172488080485e+00  -8.4867975164024294e+00  -8.4435056523696375e+00  -8.3849139614467774e+00  -8.3220840457197536e+00  -8.2600604119713754e+00  -8.2004892356543593e+00  -8.1434755528337810e+00  -8.0885142582728982e+00  -8.0348886932809425e+00  -7.9818199948529038e+00  -7.9285113098685116e+00  -7.8741544750356907e+00  -7.8179369556026854e+00  -7.7590888699486769e+00  -7.6970475935062197e+00  -7.6319197692716845e+00  -7.5656355008234382e+00  -7.5043363235571157e+00  -7.4611616895120356e+00  -7.4528858973152303e+00  -8.4247702270184277e+00  -8.4049724257920406e+00  -8.3539202134691610e+00  -8.2960753204232383e+00  -8.2411312261247129e+00  -8.1911457749601944e+00  -8.1456405427402920e+00  -8.1035609593455273e+00  -8.0638554985882021e+00  -8.0255903235140096e+00  -7.9879296400004698e+00  -7.9500831517042210e+00  -7.9112465714799844e+00  -7.8705393196364000e+00  -7.8269425943296866e+00  -7.7792620115222944e+00  -7.7262236054323941e+00  -7.6671107247087189e+00  -7.6043242616182436e+00  -7.5507487028610720e+00  -7.5386423872152655e+00  -8.2947092106464169e+00  -8.2579661539797673e+00  -8.2087944044918189e+00  -8.1661221243893252e+00  -8.1313501513698636e+00  -8.1023809842519459e+00  -8.0773000642616672e+00  -8.0547681856852336e+00  -8.0338601897994870e+00  -8.0138972711743897e+00  -7.9943327741390657e+00  -7.9746742169575038e+00  -7.9544207526356345e+00  -7.9329984018496429e+00  -7.9096736161435617e+00  -7.8834163614525323e+00  -7.8526698052765109e+00  -7.8150196794808124e+00  -7.7672493119459878e+00  -7.7101459638351306e+00  -7.6898430268845530e+00  -8.0000000000000000e+00  -8.0000000000000000e+00  -8.0000000000000000e+00  -8.0000000000000000e+00  -8.0000000000000000e+00  -8.0000000000000000e+00  -8.0000000000000000e+00  -8.0000000000000000e+00  -8.0000000000000000e+00  -8.0000000000000000e+00  -8.0000000000000000e+00  -8.0000000000000000e+00  -8.0000000000000000e+00  -8.0000000000000000e+00  -8.0000000000000000e+00  -8.0000000000000000e+00  -8.0000000000000000e+00  -8.0000000000000000e+00  -8.0000000000000000e+00  -8.0000000000000000e+00  -8.0000000000000000e+00  </DataArray> 
</PointData> 
</Piece>
</UnstructuredGrid>
</VTKFile>