<?xml version="1.0"?>
<VTKFile type="UnstructuredGrid"  version="0.1"  >
<UnstructuredGrid>
<Piece  NumberOfPoints="651" NumberOfCells="1200">
<Points>
<DataArray  type="Float64"  NumberOfComponents="3"  format="ascii">0 0 0  50000 0 0  100000 0 0  150000 0 0  200000 0 0  250000 0 0  300000 0 0  350000 0 0  400000 0 0  450000 0 0  500000 0 0  550000 0 0  600000 0 0  650000 0 0  700000 0 0  750000 0 0  800000 0 0  850000 0 0  900000 0 0  950000 0 0  1000000 0 0  0 50000 0  50000 50000 0  100000 50000 0  150000 50000 0  200000 50000 0  250000 50000 0  300000 50000 0  350000 50000 0  400000 50000 0  450000 50000 0  500000 50000 0  550000 50000 0  600000 50000 0  650000 50000 0  700000 50000 0  750000 50000 0  800000 50000 0  850000 50000 0  900000 50000 0  950000 50000 0  1000000 50000 0  0 100000 0  50000 100000 0  100000 100000 0  150000 100000 0  200000 100000 0  250000 100000 0  300000 100000 0  350000 100000 0  400000 100000 0  450000 100000 0  500000 100000 0  550000 100000 0  600000 100000 0  650000 100000 0  700000 100000 0  750000 100000 0  800000 100000 0  850000 100000 0  900000 100000 0  950000 100000 0  1000000 100000 0  0 150000 0  50000 150000 0  100000 150000 0  150000 150000 0  200000 150000 0  250000 150000 0  300000 150000 0  350000 150000 0  400000 150000 0  450000 150000 0  500000 150000 0  550000 150000 0  600000 150000 0  650000 150000 0  700000 150000 0  750000 150000 0  800000 150000 0  850000 150000 0  900000 150000 0  950000 150000 0  1000000 150000 0  0 200000 0  50000 200000 0  100000 200000 0  150000 200000 0  200000 200000 0  250000 200000 0  300000 200000 0  350000 200000 0  400000 200000 0  450000 200000 0  500000 200000 0  550000 200000 0  600000 200000 0  650000 200000 0  700000 200000 0  750000 200000 0  800000 200000 0  850000 200000 0  900000 200000 0  950000 200000 0  1000000 200000 0  0 250000 0  50000 250000 0  100000 250000 0  150000 250000 0  200000 250000 0  250000 250000 0  300000 250000 0  350000 250000 0  400000 250000 0  450000 250000 0  500000 250000 0  550000 250000 0  600000 250000 0  650000 250000 0  700000 250000 0  750000 250000 0  800000 250000 0  850000 250000 0  900000 250000 0  950000 250000 0  1000000 250000 0  0 300000 0  50000 300000 0  100000 300000 0  150000 300000 0  200000 300000 0  250000 300000 0  300000 300000 0  350000 300000 0  400000 300000 0  450000 300000 0  500000 300000 0  550000 300000 0  600000 300000 0  650000 300000 0  700000 300000 0  750000 300000 0  800000 300000 0  850000 300000 0  900000 300000 0  950000 300000 0  1000000 300000 0  0 350000 0  50000 350000 0  100000 350000 0  150000 350000 0  200000 350000 0  250000 350000 0  300000 350000 0  350000 350000 0  400000 350000 0  450000 350000 0  500000 350000 0  550000 350000 0  600000 350000 0  650000 350000 0  700000 350000 0  750000 350000 0  800000 350000 0  850000 350000 0  900000 350000 0  950000 350000 0  1000000 350000 0  0 400000 0  50000 400000 0  100000 400000 0  150000 400000 0  200000 400000 0  250000 400000 0  300000 400000 0  350000 400000 0  400000 400000 0  450000 400000 0  500000 400000 0  550000 400000 0  600000 400000 0  650000 400000 0  700000 400000 0  750000 400000 0  800000 400000 0  850000 400000 0  900000 400000 0  950000 400000 0  1000000 400000 0  0 450000 0  50000 450000 0  100000 450000 0  150000 450000 0  200000 450000 0  250000 450000 0  300000 450000 0  350000 450000 0  400000 450000 0  450000 450000 0  500000 450000 0  550000 450000 0  600000 450000 0  650000 450000 0  700000 450000 0  750000 450000 0  800000 450000 0  850000 450000 0  900000 450000 0  950000 450000 0  1000000 450000 0  0 500000 0  50000 500000 0  100000 500000 0  150000 500000 0  200000 500000 0  250000 500000 0  300000 500000 0  350000 500000 0  400000 500000 0  450000 500000 0  500000 500000 0  550000 500000 0  600000 500000 0  650000 500000 0  700000 500000 0  750000 500000 0  800000 500000 0  850000 500000 0  900000 500000 0  950000 500000 0  1000000 500000 0  0 550000 0  50000 550000 0  100000 550000 0  150000 550000 0  200000 550000 0  250000 550000 0  300000 550000 0  350000 550000 0  400000 550000 0  450000 550000 0  500000 550000 0  550000 550000 0  600000 550000 0  650000 550000 0  700000 550000 0  750000 550000 0  800000 550000 0  850000 550000 0  900000 550000 0  950000 550000 0  1000000 550000 0  0 600000 0  50000 600000 0  100000 600000 0  150000 600000 0  200000 600000 0  250000 600000 0  300000 600000 0  350000 600000 0  400000 600000 0  450000 600000 0  500000 600000 0  550000 600000 0  600000 600000 0  650000 600000 0  700000 600000 0  750000 600000 0  800000 600000 0  850000 600000 0  900000 600000 0  950000 600000 0  1000000 600000 0  0 650000 0  50000 650000 0  100000 650000 0  150000 650000 0  200000 650000 0  250000 650000 0  300000 650000 0  350000 650000 0  400000 650000 0  450000 650000 0  500000 650000 0  550000 650000 0  600000 650000 0  650000 650000 0  700000 650000 0  750000 650000 0  800000 650000 0  850000 650000 0  900000 650000 0  950000 650000 0  1000000 650000 0  0 700000 0  50000 700000 0  100000 700000 0  150000 700000 0  200000 700000 0  250000 700000 0  300000 700000 0  350000 700000 0  400000 700000 0  450000 700000 0  500000 700000 0  550000 700000 0  600000 700000 0  650000 700000 0  700000 700000 0  750000 700000 0  800000 700000 0  850000 700000 0  900000 700000 0  950000 700000 0  1000000 700000 0  0 750000 0  50000 750000 0  100000 750000 0  150000 750000 0  200000 750000 0  250000 750000 0  300000 750000 0  350000 750000 0  400000 750000 0  450000 750000 0  500000 750000 0  550000 750000 0  600000 750000 0  650000 750000 0  700000 750000 0  750000 750000 0  800000 750000 0  850000 750000 0  900000 750000 0  950000 750000 0  1000000 750000 0  0 800000 0  50000 800000 0  100000 800000 0  150000 800000 0  200000 800000 0  250000 800000 0  300000 800000 0  350000 800000 0  400000 800000 0  450000 800000 0  500000 800000 0  550000 800000 0  600000 800000 0  650000 800000 0  700000 800000 0  750000 800000 0  800000 800000 0  850000 800000 0  900000 800000 0  950000 800000 0  1000000 800000 0  0 850000 0  50000 850000 0  100000 850000 0  150000 850000 0  200000 850000 0  250000 850000 0  300000 850000 0  350000 850000 0  400000 850000 0  450000 850000 0  500000 850000 0  550000 850000 0  600000 850000 0  650000 850000 0  700000 850000 0  750000 850000 0  800000 850000 0  850000 850000 0  900000 850000 0  950000 850000 0  1000000 850000 0  0 900000 0  50000 900000 0  100000 900000 0  150000 900000 0  200000 900000 0  250000 900000 0  300000 900000 0  350000 900000 0  400000 900000 0  450000 900000 0  500000 900000 0  550000 900000 0  600000 900000 0  650000 900000 0  700000 900000 0  750000 900000 0  800000 900000 0  850000 900000 0  900000 900000 0  950000 900000 0  1000000 900000 0  0 950000 0  50000 950000 0  100000 950000 0  150000 950000 0  200000 950000 0  250000 950000 0  300000 950000 0  350000 950000 0  400000 950000 0  450000 950000 0  500000 950000 0  550000 950000 0  600000 950000 0  650000 950000 0  700000 950000 0  750000 950000 0  800000 950000 0  850000 950000 0  900000 950000 0  950000 950000 0  1000000 950000 0  0 1000000 0  50000 1000000 0  100000 1000000 0  150000 1000000 0  200000 1000000 0  250000 1000000 0  300000 1000000 0  350000 1000000 0  400000 1000000 0  450000 1000000 0  500000 1000000 0  550000 1000000 0  600000 1000000 0  650000 1000000 0  700000 1000000 0  750000 1000000 0  800000 1000000 0  850000 1000000 0  900000 1000000 0  950000 1000000 0  1000000 1000000 0  0 1050000 0  50000 1050000 0  100000 1050000 0  150000 1050000 0  200000 1050000 0  250000 1050000 0  300000 1050000 0  350000 1050000 0  400000 1050000 0  450000 1050000 0  500000 1050000 0  550000 1050000 0  600000 1050000 0  650000 1050000 0  700000 1050000 0  750000 1050000 0  800000 1050000 0  850000 1050000 0  900000 1050000 0  950000 1050000 0  1000000 1050000 0  0 1100000 0  50000 1100000 0  100000 1100000 0  150000 1100000 0  200000 1100000 0  250000 1100000 0  300000 1100000 0  350000 1100000 0  400000 1100000 0  450000 1100000 0  500000 1100000 0  550000 1100000 0  600000 1100000 0  650000 1100000 0  700000 1100000 0  750000 1100000 0  800000 1100000 0  850000 1100000 0  900000 1100000 0  950000 1100000 0  1000000 1100000 0  0 1150000 0  50000 1150000 0  100000 1150000 0  150000 1150000 0  200000 1150000 0  250000 1150000 0  300000 1150000 0  350000 1150000 0  400000 1150000 0  450000 1150000 0  500000 1150000 0  550000 1150000 0  600000 1150000 0  650000 1150000 0  700000 1150000 0  750000 1150000 0  800000 1150000 0  850000 1150000 0  900000 1150000 0  950000 1150000 0  1000000 1150000 0  0 1200000 0  50000 1200000 0  100000 1200000 0  150000 1200000 0  200000 1200000 0  250000 1200000 0  300000 1200000 0  350000 1200000 0  400000 1200000 0  450000 1200000 0  500000 1200000 0  550000 1200000 0  600000 1200000 0  650000 1200000 0  700000 1200000 0  750000 1200000 0  800000 1200000 0  850000 1200000 0  900000 1200000 0  950000 1200000 0  1000000 1200000 0  0 1250000 0  50000 1250000 0  100000 1250000 0  150000 1250000 0  200000 1250000 0  250000 1250000 0  300000 1250000 0  350000 1250000 0  400000 1250000 0  450000 1250000 0  500000 1250000 0  550000 1250000 0  600000 1250000 0  650000 1250000 0  700000 1250000 0  750000 1250000 0  800000 1250000 0  850000 1250000 0  900000 1250000 0  950000 1250000 0  1000000 1250000 0  0 1300000 0  50000 1300000 0  100000 1300000 0  150000 1300000 0  200000 1300000 0  250000 1300000 0  300000 1300000 0  350000 1300000 0  400000 1300000 0  450000 1300000 0  500000 1300000 0  550000 1300000 0  600000 1300000 0  650000 1300000 0  700000 1300000 0  750000 1300000 0  800000 1300000 0  850000 1300000 0  900000 1300000 0  950000 1300000 0  1000000 1300000 0  0 1350000 0  50000 1350000 0  100000 1350000 0  150000 1350000 0  200000 1350000 0  250000 1350000 0  300000 1350000 0  350000 1350000 0  400000 1350000 0  450000 1350000 0  500000 1350000 0  550000 1350000 0  600000 1350000 0  650000 1350000 0  700000 135
[...]
<PointData  Scalars="f_1511"> 
<DataArray  type="Float64"  Name="f_1511"  format="ascii">-8.0368294352300378e+00  -8.0363145057922516e+00  -8.0337732448025285e+00  -8.0291980092319566e+00  -8.0227075357694684e+00  -8.0144745931889805e+00  -8.0047179645388002e+00  -7.9936962110504295e+00  -7.9817007387991330e+00  -7.9690480329042623e+00  -7.9560712537750220e+00  -7.9431114230012225e+00  -7.9305084283051830e+00  -7.9185920794464204e+00  -7.9076734558053143e+00  -7.8980368196807467e+00  -7.8899324957997941e+00  -7.8835715137916536e+00  -7.8791232859865872e+00  -7.8767073183905882e+00  -7.8761853013345373e+00  -8.0373171402284100e+00  -8.0368138835128899e+00  -8.0342362684852375e+00  -8.0296308352919734e+00  -8.0231067707339498e+00  -8.0148336141677969e+00  -8.0050293591645012e+00  -7.9939529677671857e+00  -7.9818968530369734e+00  -7.9691788461906237e+00  -7.9561336548989114e+00  -7.9431039596706601e+00  -7.9304313463337817e+00  -7.9184472906420647e+00  -7.9074644185296412e+00  -7.8977682674355023e+00  -7.8896097445154982e+00  -7.8831982382164707e+00  -7.8786940310662050e+00  -7.8761926796801838e+00  -7.8756706587679925e+00  -8.0397026469183697e+00  -8.0392348303564933e+00  -8.0365981625541689e+00  -8.0318538550995573e+00  -8.0251327429905643e+00  -8.0166130393632180e+00  -8.0065193173288645e+00  -7.9951175078339913e+00  -7.9827079183529621e+00  -7.9696171107392217e+00  -7.9561891046788968e+00  -7.9427761907885355e+00  -7.9297295811087203e+00  -7.9173901174213706e+00  -7.9060792641953590e+00  -7.8960906279133090e+00  -7.8876822681367829e+00  -7.8810700686891746e+00  -7.8764221713714537e+00  -7.8738519928879720e+00  -7.8733844102127239e+00  -8.0439557119720515e+00  -8.0434933867003018e+00  -8.0407580929311120e+00  -8.0357884010593974e+00  -8.0287284921658930e+00  -8.0197730318452454e+00  -8.0091615602531050e+00  -7.9971749472073892e+00  -7.9841292012238210e+00  -7.9703674916830263e+00  -7.9562511608490611e+00  -7.9421501975686599e+00  -7.9284334967995767e+00  -7.9154591757996888e+00  -7.9035652161676078e+00  -7.8930607377139141e+00  -7.8842182844302195e+00  -7.8772675420939482e+00  -7.8723902696019632e+00  -7.8697108668105447e+00  -7.8692430003731486e+00  -8.0500094245516696e+00  -8.0495340508538682e+00  -8.0466432403678230e+00  -8.0413559344695020e+00  -8.0338219104718291e+00  -8.0242525948748717e+00  -8.0129077689329957e+00  -8.0000901400888704e+00  -7.9861388968267555e+00  -7.9714215683339340e+00  -7.9563247211047319e+00  -7.9412439994261277e+00  -7.9265738929923160e+00  -7.9126975507047019e+00  -7.8999769502601866e+00  -7.8887437634711928e+00  -7.8792912901805252e+00  -7.8718676695771821e+00  -7.8666692163994556e+00  -7.8638254987583984e+00  -7.8633315026751855e+00  -8.0578254100480429e+00  -8.0573231034038173e+00  -8.0542176284416556e+00  -8.0485148634803600e+00  -8.0403702331038609e+00  -8.0300124312894230e+00  -8.0177249885583617e+00  -8.0038380758832428e+00  -7.9887208118640540e+00  -7.9727724071143884e+00  -7.9564122554824337e+00  -7.9400693603637293e+00  -7.9241714652885404e+00  -7.9091342176012853e+00  -7.8953506822991564e+00  -7.8831815304000532e+00  -7.8729461865367609e+00  -7.8649148654016718e+00  -7.8592996629010239e+00  -7.8562350362039890e+00  -7.8557008801332167e+00  -8.0673917604173226e+00  -8.0668507145536328e+00  -8.0634719656912655e+00  -8.0572533411281242e+00  -8.0483590030401633e+00  -8.0370373863888016e+00  -8.0235994004914026e+00  -8.0084077996661893e+00  -7.9918678576269375e+00  -7.9744173685275141e+00  -7.9565158191103453e+00  -7.9386329805525557e+00  -7.9212372266423792e+00  -7.9047838751335000e+00  -7.8897038412365017e+00  -7.8763928826668073e+00  -7.8652016295469460e+00  -7.8564261460319571e+00  -7.8502968578605401e+00  -7.8469555173134555e+00  -7.8463706611608162e+00  -8.0787175990727569e+00  -8.0781268823679735e+00  -8.0744167665272766e+00  -8.0675802927688860e+00  -8.0577943587360714e+00  -8.0453309714882995e+00  -8.0305327590655686e+00  -8.0138002890204216e+00  -7.9955810444524795e+00  -7.9763580422614826e+00  -7.9566378451903947e+00  -7.9369381225416520e+00  -7.9177749916297246e+00  -7.8996503764832866e+00  -7.8830396186399394e+00  -7.8683795650420700e+00  -7.8560572649302696e+00  -7.8463989435677668e+00  -7.8396569330442070e+00  -7.8359835752265132e+00  -7.8353385102249682e+00  -8.0918270492812443e+00  -8.0911760130589503e+00  -8.0870762675567871e+00  -8.0795182250377433e+00  -8.0686957195514051e+00  -8.0549089558650682e+00  -8.0385373240987779e+00  -8.0200247995666523e+00  -7.9998672008512512e+00  -7.9785992926785125e+00  -7.9567814827578980e+00  -7.9349862170438978e+00  -7.9137842310353363e+00  -7.8937308130650745e+00  -7.8753522396230746e+00  -7.8591325488147881e+00  -7.8455007490186031e+00  -7.8348181124399607e+00  -7.8273631247753261e+00  -7.8233022561433945e+00  -7.8225877620788271e+00  -8.1067527752506834e+00  -8.1060307240206768e+00  -8.1014822208682329e+00  -8.0930966575287435e+00  -8.0810891047131630e+00  -8.0657931389766571e+00  -8.0476305659790039e+00  -8.0270947918404882e+00  -8.0047362729545295e+00  -7.9811480019463090e+00  -7.9569508039131032e+00  -7.9327785128141031e+00  -7.9092631013002839e+00  -7.8870198133077460e+00  -7.8666323577609765e+00  -7.8486382572799016e+00  -7.8335144233356289e+00  -7.8216626140662173e+00  -7.8133922274993806e+00  -7.8088875372529669e+00  -7.8080944050905146e+00  -8.1235288543262030e+00  -8.1227248353615025e+00  -8.1176670309254604e+00  -8.1083452612117082e+00  -8.0950003675771054e+00  -8.0780050035905884e+00  -8.0578296316487474e+00  -8.0350235508499175e+00  -8.0101983453797150e+00  -7.9840116460843129e+00  -7.9571510009478628e+00  -7.9303178768075018e+00  -7.9042117487881614e+00  -7.8795141747447186e+00  -7.8568727660853490e+00  -7.8368850447226812e+00  -7.8200822214347880e+00  -7.8069125637860362e+00  -7.7977216722304101e+00  -7.7927155449629630e+00  -7.7918344478218131e+00  -8.1421826562490338e+00  -8.1412853105934548e+00  -8.1356558456715629e+00  -8.1252860968742340e+00  -8.1104476833961083e+00  -8.0915587128864690e+00  -8.0691452073231140e+00  -8.0438192790936665e+00  -8.0162602723769556e+00  -7.9871966782233264e+00  -7.9573886235124727e+00  -7.9276108685707962e+00  -7.8986360899635901e+00  -7.8712181174899563e+00  -7.8460748148385235e+00  -7.8238704306335283e+00  -7.8051973875083274e+00  -7.7905571864230669e+00  -7.7803376107487523e+00  -7.7747707668069186e+00  -7.7737921934948515e+00  -8.1627253610803407e+00  -8.1617228075828301e+00  -8.1554572197091435e+00  -8.1439244553999099e+00  -8.1274327202411296e+00  -8.1064528995594145e+00  -8.0815743144856071e+00  -8.0534793180659285e+00  -8.0229216995820334e+00  -7.9907066239778946e+00  -7.9576718831205664e+00  -7.9246702355845526e+00  -7.8925523290341664e+00  -7.8621495278916083e+00  -7.8342559979119484e+00  -7.8096096159053712e+00  -7.7888715469823797e+00  -7.7726041665523038e+00  -7.7612444017405844e+00  -7.7550556241138846e+00  -7.7539698419469927e+00  -8.1851407021287752e+00  -8.1840204346797663e+00  -8.1770519185532571e+00  -8.1642377976101237e+00  -8.1459299292079557e+00  -8.1226606744636776e+00  -8.0950915206111933e+00  -8.0639830824057359e+00  -8.0301701935742553e+00  -7.9945397549667705e+00  -7.9580110454188340e+00  -7.9215180017681144e+00  -7.8859925262394057e+00  -7.8523476260450806e+00  -7.8214592299570587e+00  -7.7941458465571491e+00  -7.7711456854094259e+00  -7.7530908958064941e+00  -7.7404759378414001e+00  -7.7336018193680083e+00  -7.7323988433304915e+00  -8.2093714688364550e+00  -8.2081202456111253e+00  -8.2003793617138179e+00  -8.1861622257994888e+00  -8.1658733284052669e+00  -8.1401172172053862e+00  -8.1096379764412294e+00  -8.0752832246511304e+00  -8.0379751445549168e+00  -7.9986861775142533e+00  -7.9584189291645249e+00  -7.9181893483322749e+00  -7.8790115826658083e+00  -7.8418825623725050e+00  -7.8077644160701007e+00  -7.7775632683298328e+00  -7.7521036628228108e+00  -7.7320981864275824e+00  -7.7181093176109350e+00  -7.7104839258295685e+00  -7.7091534686318557e+00  -8.2353032433178068e+00  -8.2339069379275536e+00  -8.2253211111122138e+00  -8.2095758105049086e+00  -8.1871400407837900e+00  -8.1587042021621343e+00  -8.1251075977328782e+00  -8.0872944759905501e+00  -8.0462800588490211e+00  -8.0031241490138783e+00  -7.9589115302976214e+00  -7.9147375110313032e+00  -7.8716960601121526e+00  -7.8308675294833714e+00  -7.7933030210824086e+00  -7.7600030347826356e+00  -7.7318890108929272e+00  -7.7097671289999905e+00  -7.6942814554729724e+00  -7.6858357551348684e+00  -7.6843671228607331e+00  -8.2627447662998481e+00  -8.2611881328097354e+00  -8.2516806894887864e+00  -8.2342779412801548e+00  -8.2095296816143630e+00  -8.1782301677779206e+00  -8.1413296010455714e+00  -8.0998795407663557e+00  -8.0549928224511920e+00  -8.0078154188480593e+00  -7.9595087865005620e+00  -7.9112399299575094e+00  -7.8641752928557906e+00  -7.8194740532216498e+00  -7.7782764683352825e+00  -7.7416835908710384e+00  -7.7107259329857989e+00  -7.6863199300032541e+00  -7.6692093461929680e+00  -7.6598701303783177e+00  -7.6582520109025456e+00  -8.2914042194935345e+00  -8.2896704914387289e+00  -8.2791588379446015e+00  -8.2599636493580064e+00  -8.2327384708531604e+00  -8.1984057667616792e+00  -8.1580465084216716e+00  -8.1128313948917512e+00  -8.0639735249262756e+00  -8.0126993998167038e+00  -7.9602354878412598e+00  -7.9078058640635556e+00  -7.8566352374242214e+00  -7.8079511664476273e+00  -7.7629793152320952e+00  -7.7229262487464805e+00  -7.6889456656154413e+00  -7.6620857946843337e+00  -7.6432148822835071e+00  -7.6329028261850240e+00  -7.6311228896152148e+00  -8.3208605431142644e+00  -8.3189307308474909e+00  -8.3073230471657737e+00  -8.2861915222268525e+00  -8.2563266560137496e+00  -8.2188126672449435e+00  -8.1748867150849254e+00  -8.1258514237725308e+00  -8.0730195465866643e+00  -8.0176860418823441e+00  -7.9611223155235438e+00  -7.9045855782848555e+00  -7.8493353776237722e+00  -7.7966490980693219e+00  -7.7478282124109814e+00  -7.7041873876125511e+00  -7.6670196875218810e+00  -7.6375332693574975e+00  -7.6167554101343864e+00  -7.6053816508859873e+00  -7.6034258373060322e+00  -8.3505286217144228e+00  -8.3483802717329425e+00  -8.3355697335914964e+00  -8.3123433204226611e+00  -8.2796774589987532e+00  -8.2388647750719084e+00  -8.1913308901752071e+00  -8.1385231722217508e+00  -8.0818479435016837e+00  -8.0226474600129638e+00  -7.9622069421080166e+00  -7.9017809486753325e+00  -7.8426286290996794e+00  -7.7860477878612064e+00  -7.7333975443491347e+00  -7.6860988016725722e+00  -7.6456017148893149e+00  -7.6133110115267328e+00  -7.5904616963408937e+00  -7.5779220129512543e+00  -7.5757733119601127e+00  -8.3796166551950542e+00  -8.3772216432652744e+00  -8.3630766012202375e+00  -8.3375725830754970e+00  -8.3019453090735684e+00  -8.2577605668404281e+00  -8.2066720937865707e+00  -8.1502823149198456e+00  -8.0900759036560110e+00  -8.0274087552528250e+00  -7.9635350355772507e+00  -7.8996567841405749e+00  -7.8369833553250325e+00  -7.7767897071631413e+00  -7.7204621463271170e+00  -7.6695177769595171e+00  -7.6255810396468267e+00  -7.5902998755019162e+00  -7.5651858427537118e+00  -7.5513509805140213e+00  -7.5489873880694169e+00  -8.4070730619226008e+00  -8.4043935974196504e+00  -8.3887411714712528e+00  -8.3607381507196159e+00  -8.3219906727097754e+00  -8.2744260067881541e+00  -8.2199710003316397e+00  -8.1603852073990666e+00  -8.0972014834667831e+00  -8.0317391986568545e+00  -7.9651608536575802e+00  -7.8985511481154518e+00  -7.8330049750688575e+00  -7.7697146761779869e+00  -7.7100461493377637e+00  -7.6555881208460690e+00  -7.6081505692586520e+00  -7.5696807723268273e+00  -7.5420633057246071e+00  -7.5267631035321445e+00  -7.5241542294695476e+00  -8.4315183956847317e+00  -8.4284995226363897e+00  -8.4110984403762235e+00  -8.3803163218275198e+00  -8.3382986730280528e+00  -8.2874495352317084e+00  -8.2300108469874420e+00  -8.1678816844667672e+00  -8.1025893513136840e+00  -8.0353461850579286e+00  -7.9671468733992921e+00  -7.8988812588780979e+00  -7.8314517341329353e+00  -7.7658908788342558e+00  -7.7034739540628490e+00  -7.6458119257236818e+00  -7.5948937834319219e+00  -7.5530254832516635e+00  -7.5225963054213780e+00  -7.5055937371615276e+00  -7.5026951310675409e+00  -8.4511541073446281e+00  -8.4477087400608273e+00  -8.4282046203216581e+00  -8.3942820146023482e+00  -8.3488800085423165e+00  -8.2950156227497942e+00  -8.2352630859608702e+00  -8.1716034774536190e+00  -8.1054702312240909e+00  -8.0378762249770794e+00  -7.9695615800863857e+00  -7.9011390037687006e+00  -7.8332345167731958e+00  -7.7666299834341048e+00  -7.7024129390060576e+00  -7.6421277145902611e+00  -7.5878950656704429e+00  -7.5424222589721692e+00  -7.5087721974661070e+00  -7.4897206397842329e+00  -7.4864640620346368e+00  -8.4636327062645975e+00  -8.4596089289493381e+00  -8.4374619260884902e+00  -8.3999454063695804e+00  -8.3511586756734104e+00  -8.2948548040774384e+00  -8.2338863267118665e+00  -8.1701884609768403e+00  -8.1049681360103669e+00  -8.0389295923933233e+00  -7.9724742204015406e+00  -7.9058669411886804e+00  -7.8393839399532821e+00  -7.7734638910149503e+00  -7.7088848376522128e+00  -7.6469799613238143e+00  -7.5898749877208340e+00  -7.5406555211307484e+00  -7.5032434998676383e+00  -7.4816154841082678e+00  -7.4778914268009000e+00  -8.4658589833294897e+00  -8.4609600749683480e+00  -8.4353361651429637e+00  -8.3937308518435234e+00  -8.3418703998843089e+00  -8.2842523145207405e+00  -8.2238003172505660e+00  -8.1621724807689695e+00  -8.1001750219557778e+00  -8.0380972555276902e+00  -7.9759452121040608e+00  -7.9136030583641119e+00  -7.8509607176437335e+00  -7.7880457669891285e+00  -7.7251993598821027e+00  -7.6633389208769422e+00  -7.6043374695194510e+00  -7.5514685378946460e+00  -7.5096247290879132e+00  -7.4845924075977566e+00  -7.4802161951061095e+00  -8.4536586770189075e+00  -8.4472262053384259e+00  -8.4168805034016376e+00  -8.3709101079508219e+00  -8.3170494780941535e+00  -8.2602038235191646e+00  -8.2029030943605843e+00  -8.1461904654214532e+00  -8.0902940131007632e+00  -8.0350281240543833e+00  -7.9800112141730324e+00  -7.9247833032815809e+00  -7.8688821776927957e+00  -7.8119226842266620e+00  -7.7537263677977801e+00  -7.6945703485168817e+00  -7.6356610765375086e+00  -7.5799355113242646e+00  -7.5330244782093700e+00  -7.5032678506836916e+00  -7.4979061284540585e+00  -8.4211479637912916e+00  -8.4115574037365217e+00  -8.3749537324466239e+00  -8.3254230512319864e+00  -8.2723109516311855e+00  -8.2198798414560379e+00  -8.1695209838195968e+00  -8.1213234119535098e+00  -8.0748604926695293e+00  -8.0295267295341421e+00  -7.9846639994308095e+00  -7.9395989560703812e+00  -7.8936487145901868e+00  -7.8461267523484794e+00  -7.7963826768111311e+00  -7.7439413198794664e+00  -7.6888930239591406e+00  -7.6328684246990779e+00  -7.5810550627276072e+00  -7.5445522295953653e+00  -7.5375380070025226e+00  -8.3591578437723442e+00  -8.3423961341301780e+00  -8.2992311283966380e+00  -8.2503299136533794e+00  -8.2038813436511475e+00  -8.1616236466571426e+00  -8.1231525104839708e+00  -8.0875768559674626e+00  -8.0540081031967272e+00  -8.0216570502129674e+00  -7.9898173067949907e+00  -7.9578209258137029e+00  -7.9249881624455902e+00  -7.8905748582968922e+00  -7.8537201492378896e+00  -7.8134149419691639e+00  -7.7685830423288760e+00  -7.7186190978315556e+00  -7.6655507216898267e+00  -7.6202590619360029e+00  -7.6100024095020897e+00  -8.2492003901724047e+00  -8.2181154318092933e+00  -8.1765404314950558e+00  -8.1404646334458075e+00  -8.1110672460448630e+00  -8.0865746036216901e+00  -8.0653686236693378e+00  -8.0463175190357372e+00  -8.0286393481368066e+00  -8.0117603235251416e+00  -7.9952183281993312e+00  -7.9785970342578549e+00  -7.9614730604288608e+00  -7.9433612486795422e+00  -7.9236416389106603e+00  -7.9014438073035427e+00  -7.8754523086818313e+00  -7.8436272915274978e+00  -7.8032504671390814e+00  -7.7549841203223835e+00  -7.7377977815849484e+00  -8.0000000000000000e+00  -8.0000000000000000e+00  -8.0000000000000000e+00  -8.0000000000000000e+00  -8.0000000000000000e+00  -8.0000000000000000e+00  -8.0000000000000000e+00  -8.0000000000000000e+00  -8.0000000000000000e+00  -8.0000000000000000e+00  -8.0000000000000000e+00  -8.0000000000000000e+00  -8.0000000000000000e+00  -8.0000000000000000e+00  -8.0000000000000000e+00  -8.0000000000000000e+00  -8.0000000000000000e+00  -8.0000000000000000e+00  -8.0000000000000000e+00  -8.0000000000000000e+00  -8.0000000000000000e+00  </DataArray> 
</PointData> 
</Piece>
</UnstructuredGrid>
</VTKFile>