<?xml version="1.0"?>
<VTKFile type="UnstructuredGrid"  version="0.1"  >
<UnstructuredGrid>
<Piece  NumberOfPoints="651" NumberOfCells="1200">
<Points>
<DataArray  type="Float64"  NumberOfComponents="3"  format="ascii">0 0 0  50000 0 0  100000 0 0  150000 0 0  200000 0 0  250000 0 0  300000 0 0  350000 0 0  400000 0 0  450000 0 0  500000 0 0  550000 0 0  600000 0 0  650000 0 0  700000 0 0  750000 0 0  800000 0 0  850000 0 0  900000 0 0  950000 0 0  1000000 0 0  0 50000 0  50000 50000 0  100000 50000 0  150000 50000 0  200000 50000 0  250000 50000 0  300000 50000 0  350000 50000 0  400000 50000 0  450000 50000 0  500000 50000 0  550000 50000 0  600000 50000 0  650000 50000 0  700000 50000 0  750000 50000 0  800000 50000 0  850000 50000 0  900000 50000 0  950000 50000 0  1000000 50000 0  0 100000 0  50000 100000 0  100000 100000 0  150000 100000 0  200000 100000 0  250000 100000 0  300000 100000 0  350000 100000 0  400000 100000 0  450000 100000 0  500000 100000 0  550000 100000 0  600000 100000 0  650000 100000 0  700000 100000 0  750000 100000 0  800000 100000 0  850000 100000 0  900000 100000 0  950000 100000 0  1000000 100000 0  0 150000 0  50000 150000 0  100000 150000 0  150000 150000 0  200000 150000 0  250000 150000 0  300000 150000 0  350000 150000 0  400000 150000 0  450000 150000 0  500000 150000 0  550000 150000 0  600000 150000 0  650000 150000 0  700000 150000 0  750000 150000 0  800000 150000 0  850000 150000 0  900000 150000 0  950000 150000 0  1000000 150000 0  0 200000 0  50000 200000 0  100000 200000 0  150000 200000 0  200000 200000 0  250000 200000 0  300000 200000 0  350000 200000 0  400000 200000 0  450000 200000 0  500000 200000 0  550000 200000 0  600000 200000 0  650000 200000 0  700000 200000 0  750000 200000 0  800000 200000 0  850000 200000 0  900000 200000 0  950000 200000 0  1000000 200000 0  0 250000 0  50000 250000 0  100000 250000 0  150000 250000 0  200000 250000 0  250000 250000 0  300000 250000 0  350000 250000 0  400000 250000 0  450000 250000 0  500000 250000 0  550000 250000 0  600000 250000 0  650000 250000 0  700000 250000 0  750000 250000 0  800000 250000 0  850000 250000 0  900000 250000 0  950000 250000 0  1000000 250000 0  0 300000 0  50000 300000 0  100000 300000 0  150000 300000 0  200000 300000 0  250000 300000 0  300000 300000 0  350000 300000 0  400000 300000 0  450000 300000 0  500000 300000 0  550000 300000 0  600000 300000 0  650000 300000 0  700000 300000 0  750000 300000 0  800000 300000 0  850000 300000 0  900000 300000 0  950000 300000 0  1000000 300000 0  0 350000 0  50000 350000 0  100000 350000 0  150000 350000 0  200000 350000 0  250000 350000 0  300000 350000 0  350000 350000 0  400000 350000 0  450000 350000 0  500000 350000 0  550000 350000 0  600000 350000 0  650000 350000 0  700000 350000 0  750000 350000 0  800000 350000 0  850000 350000 0  900000 350000 0  950000 350000 0  1000000 350000 0  0 400000 0  50000 400000 0  100000 400000 0  150000 400000 0  200000 400000 0  250000 400000 0  300000 400000 0  350000 400000 0  400000 400000 0  450000 400000 0  500000 400000 0  550000 400000 0  600000 400000 0  650000 400000 0  700000 400000 0  750000 400000 0  800000 400000 0  850000 400000 0  900000 400000 0  950000 400000 0  1000000 400000 0  0 450000 0  50000 450000 0  100000 450000 0  150000 450000 0  200000 450000 0  250000 450000 0  300000 450000 0  350000 450000 0  400000 450000 0  450000 450000 0  500000 450000 0  550000 450000 0  600000 450000 0  650000 450000 0  700000 450000 0  750000 450000 0  800000 450000 0  850000 450000 0  900000 450000 0  950000 450000 0  1000000 450000 0  0 500000 0  50000 500000 0  100000 500000 0  150000 500000 0  200000 500000 0  250000 500000 0  300000 500000 0  350000 500000 0  400000 500000 0  450000 500000 0  500000 500000 0  550000 500000 0  600000 500000 0  650000 500000 0  700000 500000 0  750000 500000 0  800000 500000 0  850000 500000 0  900000 500000 0  950000 500000 0  1000000 500000 0  0 550000 0  50000 550000 0  100000 550000 0  150000 550000 0  200000 550000 0  250000 550000 0  300000 550000 0  350000 550000 0  400000 550000 0  450000 550000 0  500000 550000 0  550000 550000 0  600000 550000 0  650000 550000 0  700000 550000 0  750000 550000 0  800000 550000 0  850000 550000 0  900000 550000 0  950000 550000 0  1000000 550000 0  0 600000 0  50000 600000 0  100000 600000 0  150000 600000 0  200000 600000 0  250000 600000 0  300000 600000 0  350000 600000 0  400000 600000 0  450000 600000 0  500000 600000 0  550000 600000 0  600000 600000 0  650000 600000 0  700000 600000 0  750000 600000 0  800000 600000 0  850000 600000 0  900000 600000 0  950000 600000 0  1000000 600000 0  0 650000 0  50000 650000 0  100000 650000 0  150000 650000 0  200000 650000 0  250000 650000 0  300000 650000 0  350000 650000 0  400000 650000 0  450000 650000 0  500000 650000 0  550000 650000 0  600000 650000 0  650000 650000 0  700000 650000 0  750000 650000 0  800000 650000 0  850000 650000 0  900000 650000 0  950000 650000 0  1000000 650000 0  0 700000 0  50000 700000 0  100000 700000 0  150000 700000 0  200000 700000 0  250000 700000 0  300000 700000 0  350000 700000 0  400000 700000 0  450000 700000 0  500000 700000 0  550000 700000 0  600000 700000 0  650000 700000 0  700000 700000 0  750000 700000 0  800000 700000 0  850000 700000 0  900000 700000 0  950000 700000 0  1000000 700000 0  0 750000 0  50000 750000 0  100000 750000 0  150000 750000 0  200000 750000 0  250000 750000 0  300000 750000 0  350000 750000 0  400000 750000 0  450000 750000 0  500000 750000 0  550000 750000 0  600000 750000 0  650000 750000 0  700000 750000 0  750000 750000 0  800000 750000 0  850000 750000 0  900000 750000 0  950000 750000 0  1000000 750000 0  0 800000 0  50000 800000 0  100000 800000 0  150000 800000 0  200000 800000 0  250000 800000 0  300000 800000 0  350000 800000 0  400000 800000 0  450000 800000 0  500000 800000 0  550000 800000 0  600000 800000 0  650000 800000 0  700000 800000 0  750000 800000 0  800000 800000 0  850000 800000 0  900000 800000 0  950000 800000 0  1000000 800000 0  0 850000 0  50000 850000 0  100000 850000 0  150000 850000 0  200000 850000 0  250000 850000 0  300000 850000 0  350000 850000 0  400000 850000 0  450000 850000 0  500000 850000 0  550000 850000 0  600000 850000 0  650000 850000 0  700000 850000 0  750000 850000 0  800000 850000 0  850000 850000 0  900000 850000 0  950000 850000 0  1000000 850000 0  0 900000 0  50000 900000 0  100000 900000 0  150000 900000 0  200000 900000 0  250000 900000 0  300000 900000 0  350000 900000 0  400000 900000 0  450000 900000 0  500000 900000 0  550000 900000 0  600000 900000 0  650000 900000 0  700000 900000 0  750000 900000 0  800000 900000 0  850000 900000 0  900000 900000 0  950000 900000 0  1000000 900000 0  0 950000 0  50000 950000 0  100000 950000 0  150000 950000 0  200000 950000 0  250000 950000 0  300000 950000 0  350000 950000 0  400000 950000 0  450000 950000 0  500000 950000 0  550000 950000 0  600000 950000 0  650000 950000 0  700000 950000 0  750000 950000 0  800000 950000 0  850000 950000 0  900000 950000 0  950000 950000 0  1000000 950000 0  0 1000000 0  50000 1000000 0  100000 1000000 0  150000 1000000 0  200000 1000000 0  250000 1000000 0  300000 1000000 0  350000 1000000 0  400000 1000000 0  450000 1000000 0  500000 1000000 0  550000 1000000 0  600000 1000000 0  650000 1000000 0  700000 1000000 0  750000 1000000 0  800000 1000000 0  850000 1000000 0  900000 1000000 0  950000 1000000 0  1000000 1000000 0  0 1050000 0  50000 1050000 0  100000 1050000 0  150000 1050000 0  200000 1050000 0  250000 1050000 0  300000 1050000 0  350000 1050000 0  400000 1050000 0  450000 1050000 0  500000 1050000 0  550000 1050000 0  600000 1050000 0  650000 1050000 0  700000 1050000 0  750000 1050000 0  800000 1050000 0  850000 1050000 0  900000 1050000 0  950000 1050000 0  1000000 1050000 0  0 1100000 0  50000 1100000 0  100000 1100000 0  150000 1100000 0  200000 1100000 0  250000 1100000 0  300000 1100000 0  350000 1100000 0  400000 1100000 0  450000 1100000 0  500000 1100000 0  550000 1100000 0  600000 1100000 0  650000 1100000 0  700000 1100000 0  750000 1100000 0  800000 1100000 0  850000 1100000 0  900000 1100000 0  950000 1100000 0  1000000 1100000 0  0 1150000 0  50000 1150000 0  100000 1150000 0  150000 1150000 0  200000 1150000 0  250000 1150000 0  300000 1150000 0  350000 1150000 0  400000 1150000 0  450000 1150000 0  500000 1150000 0  550000 1150000 0  600000 1150000 0  650000 1150000 0  700000 1150000 0  750000 1150000 0  800000 1150000 0  850000 1150000 0  900000 1150000 0  950000 1150000 0  1000000 1150000 0  0 1200000 0  50000 1200000 0  100000 1200000 0  150000 1200000 0  200000 1200000 0  250000 1200000 0  300000 1200000 0  350000 1200000 0  400000 1200000 0  450000 1200000 0  500000 1200000 0  550000 1200000 0  600000 1200000 0  650000 1200000 0  700000 1200000 0  750000 1200000 0  800000 1200000 0  850000 1200000 0  900000 1200000 0  950000 1200000 0  1000000 1200000 0  0 1250000 0  50000 1250000 0  100000 1250000 0  150000 1250000 0  200000 1250000 0  250000 1250000 0  300000 1250000 0  350000 1250000 0  400000 1250000 0  450000 1250000 0  500000 1250000 0  550000 1250000 0  600000 1250000 0  650000 1250000 0  700000 1250000 0  750000 1250000 0  800000 1250000 0  850000 1250000 0  900000 1250000 0  950000 1250000 0  1000000 1250000 0  0 1300000 0  50000 1300000 0  100000 1300000 0  150000 1300000 0  200000 1300000 0  250000 1300000 0  300000 1300000 0  350000 1300000 0  400000 1300000 0  450000 1300000 0  500000 1300000 0  550000 1300000 0  600000 1300000 0  650000 1300000 0  700000 1300000 0  750000 1300000 0  800000 1300000 0  850000 1300000 0  900000 1300000 0  950000 1300000 0  1000000 1300000 0  0 1350000 0  50000 1350000 0  100000 1350000 0  150000 1350000 0  200000 1350000 0  250000 1350000 0  300000 1350000 0  350000 1350000 0  400000 1350000 0  450000 1350000 0  500000 1350000 0  550000 1350000 0  600000 1350000 0  650000 1350000 0  700000 135
[...]
<PointData  Scalars="f_1511"> 
<DataArray  type="Float64"  Name="f_1511"  format="ascii">-8.0300942680609584e+00  -8.0296728227810164e+00  -8.0275988005795291e+00  -8.0238658315020555e+00  -8.0185704987533697e+00  -8.0118535431918207e+00  -8.0038933252016040e+00  -7.9949007287198306e+00  -7.9851134935444321e+00  -7.9747898668959545e+00  -7.9642017329344581e+00  -7.9536274061976719e+00  -7.9433442766673750e+00  -7.9336214962942186e+00  -7.9247129039903275e+00  -7.9168504130478539e+00  -7.9102381873189316e+00  -7.9050482531694719e+00  -7.9014185767318104e+00  -7.8994462847596054e+00  -7.8990189375279556e+00  -8.0304924870163905e+00  -8.0300805198390233e+00  -8.0279769170987816e+00  -8.0242192980170621e+00  -8.0188964931384490e+00  -8.0121466254477447e+00  -8.0041474212984891e+00  -7.9951100983467613e+00  -7.9852732235047466e+00  -7.9748961475253264e+00  -7.9642520222299789e+00  -7.9536205209186122e+00  -7.9432804242082984e+00  -7.9335022482610498e+00  -7.9245410984208995e+00  -7.9166299326810998e+00  -7.9099733950881728e+00  -7.9047421844927444e+00  -7.9010668607691557e+00  -7.8990251326436418e+00  -7.8985977386907118e+00  -8.0324382892266257e+00  -8.0320550043314807e+00  -8.0299031199200339e+00  -8.0260322224376228e+00  -8.0205487080267890e+00  -8.0135977496729005e+00  -8.0053624338549074e+00  -7.9960596620613025e+00  -7.9859344418627538e+00  -7.9752532474877729e+00  -7.9642968288487470e+00  -7.9533527006716112e+00  -7.9427074980776808e+00  -7.9326393791502596e+00  -7.9234106601769909e+00  -7.9152608812579865e+00  -7.9084005189045614e+00  -7.9030055645173647e+00  -7.8992129721716555e+00  -7.8971149699192189e+00  -7.8967316391361777e+00  -8.0359072983394686e+00  -8.0355283226525582e+00  -8.0332957646241656e+00  -8.0292409207067390e+00  -8.0234810453553767e+00  -8.0161746851236142e+00  -8.0075171077182699e+00  -7.9977373855997271e+00  -7.9870933260367964e+00  -7.9758649461813205e+00  -7.9643471241716162e+00  -7.9528418103120710e+00  -7.9416500628712852e+00  -7.9310641299308706e+00  -7.9213597974052634e+00  -7.9127892531470705e+00  -7.9055747773089422e+00  -7.8999036014080399e+00  -7.8959237635850625e+00  -7.8937364473744491e+00  -7.8933527163977706e+00  -8.0408454445007944e+00  -8.0404556696024123e+00  -8.0380960202465914e+00  -8.0337819293918145e+00  -8.0276352439573930e+00  -8.0198281569385159e+00  -8.0105724172724706e+00  -8.0001148893039655e+00  -7.9887322750637946e+00  -7.9767244544389753e+00  -7.9644068768912701e+00  -7.9521024175534878e+00  -7.9401330102987400e+00  -7.9288113184021975e+00  -7.9184326957954019e+00  -7.9092677165821659e+00  -7.9015555774206891e+00  -7.8954985452234236e+00  -7.8912565214071284e+00  -7.8889349361008314e+00  -7.8885297613764136e+00  -8.0472218978766836e+00  -8.0468099931382273e+00  -8.0442750041602906e+00  -8.0396218109445954e+00  -8.0329769019051245e+00  -8.0245265485037152e+00  -8.0145018518053810e+00  -8.0031720595749842e+00  -7.9908382750881737e+00  -7.9778262136286067e+00  -7.9644780988619210e+00  -7.9511440161618552e+00  -7.9381730242885817e+00  -7.9259042940774114e+00  -7.9146585333245199e+00  -7.9047299631292649e+00  -7.8963790791902593e+00  -7.8898261447518410e+00  -7.8852439345467911e+00  -7.8827419032818842e+00  -7.8823038274144217e+00  -8.0550273826941066e+00  -8.0545837007022634e+00  -8.0518255496031124e+00  -8.0467513106165178e+00  -8.0394946246444476e+00  -8.0302578656621879e+00  -8.0192944565553308e+00  -8.0069002116266308e+00  -7.9934057182772644e+00  -7.9791681618216108e+00  -7.9645624712679615e+00  -7.9499719903333910e+00  -7.9357789245923138e+00  -7.9223548076094374e+00  -7.9100512225592112e+00  -7.8991910083140535e+00  -7.8900601096734144e+00  -7.8828998706630236e+00  -7.8778980217911618e+00  -7.8751699972582365e+00  -7.8746903934529842e+00  -8.0642697561949017e+00  -8.0637853546664697e+00  -8.0607566205242058e+00  -8.0551780776573185e+00  -8.0471937670933276e+00  -8.0370252896265075e+00  -8.0249519358881027e+00  -8.0113003604299085e+00  -7.9964355810777894e+00  -7.9807516765472704e+00  -7.9646619851386733e+00  -7.9485889330615835e+00  -7.9329536829544489e+00  -7.9181657965654306e+00  -7.9046131042410792e+00  -7.8926519661710186e+00  -7.8825980354689067e+00  -7.8747172582591167e+00  -7.8692152372371353e+00  -7.8662160624596646e+00  -7.8656871379033584e+00  -8.0749690990928205e+00  -8.0744352596641580e+00  -8.0710883629331711e+00  -8.0649208219734305e+00  -8.0560904924725563e+00  -8.0448419718164885e+00  -8.0314845358254807e+00  -8.0163802501348158e+00  -7.9999335691854085e+00  -7.9825807975309448e+00  -7.9647792145259704e+00  -7.9469959501634353e+00  -7.9296967422388338e+00  -7.9133347033700074e+00  -7.8983392297470028e+00  -7.8851051887590087e+00  -7.8739824674529419e+00  -7.8652656026108918e+00  -7.8591815310533146e+00  -7.8558658751764110e+00  -7.8552800673544407e+00  -8.0871524536813002e+00  -8.0865604132279234e+00  -8.0828470488056539e+00  -8.0760039670429826e+00  -8.0662063363956946e+00  -8.0537259678937847e+00  -8.0389067368910059e+00  -8.0221510403479286e+00  -8.0039079200476557e+00  -7.9846612035768052e+00  -7.9649174846200816e+00  -7.9451940022709016e+00  -7.9260064809325401e+00  -7.9078569725320742e+00  -7.8912217501184188e+00  -7.8765393312336132e+00  -7.8641986922782054e+00  -7.8545274003189984e+00  -7.8477776056770470e+00  -7.8440994531804424e+00  -7.8434492042863742e+00  -8.1008480121483899e+00  -8.1001887908922701e+00  -8.0960594796620082e+00  -8.0884520562889684e+00  -8.0775626933301066e+00  -8.0636950668765870e+00  -8.0472327459633330e+00  -8.0286237377157104e+00  -8.0083669758087304e+00  -7.9869990522720880e+00  -7.9650810320058048e+00  -7.9431853710095126e+00  -7.9218829046841375e+00  -7.9017298239671074e+00  -7.8832545685302930e+00  -7.8669446305239612e+00  -7.8532333006953872e+00  -7.8424860934747436e+00  -7.8349846867094524e+00  -7.8308969406828446e+00  -7.8301745926508701e+00  -8.1160784904558714e+00  -8.1153427699149816e+00  -8.1107465326393076e+00  -8.1022834198212763e+00  -8.0901746877603529e+00  -8.0747610787328750e+00  -8.0564714904623056e+00  -8.0358051937077306e+00  -8.0133164354937083e+00  -7.9895996610096383e+00  -7.9652751975599037e+00  -7.9409753502180838e+00  -7.9173307287214900e+00  -7.8949565371122716e+00  -7.8744385742642207e+00  -7.8563188057646416e+00  -7.8410804838820098e+00  -7.8291325601168538e+00  -7.8207911187568468e+00  -7.8162453081557262e+00  -7.8154430485819137e+00  -8.1328533868241202e+00  -8.1320314145929657e+00  -8.1269155370563659e+00  -8.1175026955757499e+00  -8.1040439656607486e+00  -8.0869231310205585e+00  -8.0666207372958691e+00  -8.0436933873178020e+00  -8.0187561071372588e+00  -7.9924659515739860e+00  -7.9655066740888358e+00  -7.9385742817530476e+00  -7.9123630643517453e+00  -7.8875515464199237e+00  -7.8647878345660427e+00  -7.8446740095619916e+00  -7.8277494378131500e+00  -7.8144727473353246e+00  -7.8052001095241907e+00  -7.8001461667807241e+00  -7.7992559986544912e+00  -8.1511597867673995e+00  -8.1502412920544192e+00  -8.1445511292638351e+00  -8.1340917948073983e+00  -8.1191499462929038e+00  -8.1001595077122612e+00  -8.0776599136455616e+00  -8.0522716534399503e+00  -8.0246759290637648e+00  -7.9955965488954863e+00  -7.9657838252901545e+00  -7.9360000763287220e+00  -7.9070059650241351e+00  -7.8795467020020578e+00  -7.8543371701685718e+00  -7.8320452914056009e+00  -7.8132733295485828e+00  -7.7985368570768010e+00  -7.7882389807421220e+00  -7.7826250357326447e+00  -7.7816387522659323e+00  -8.1709513345345179e+00  -8.1699254372181258e+00  -8.1636041752188486e+00  -8.1519988479435561e+00  -8.1354390234812808e+00  -8.1144175096321032e+00  -8.0895411494086069e+00  -8.0615014633699218e+00  -8.0310509870381477e+00  -7.9989834008649190e+00  -7.9661170914446462e+00  -7.9332813819634360e+00  -7.9013041306260634e+00  -7.8709991078511656e+00  -7.8431516058661455e+00  -7.8185010985078032e+00  -7.7977203376317528e+00  -7.7813905496949145e+00  -7.7699703378849447e+00  -7.7637424444991714e+00  -7.7626515882594820e+00  -8.1921349406685522e+00  -8.1909900293065174e+00  -8.1839782755500554e+00  -8.1711245778751067e+00  -8.1528111117200694e+00  -8.1296007265901906e+00  -8.1021779840820169e+00  -8.0713133043564351e+00  -8.0378352141425413e+00  -8.0026087659814600e+00  -7.9665194968080462e+00  -7.9304615830024243e+00  -7.8953281118427476e+00  -7.8620010164562988e+00  -7.8313382736810038e+00  -7.8041564370983227e+00  -7.7812073772592392e+00  -7.7631487193486404e+00  -7.7505056435208068e+00  -7.7436073082608692e+00  -7.7424030857127031e+00  -8.2145547316427976e+00  -8.2132782711228494e+00  -8.2055132682085326e+00  -8.1913054211579723e+00  -8.1711027980491924e+00  -8.1455529920533625e+00  -8.1154310920709705e+00  -8.0815951496335199e+00  -8.0449534310853075e+00  -8.0064414028002275e+00  -7.9670072712419433e+00  -7.9276038226627925e+00  -7.8891833878823761e+00  -7.8526923223080871e+00  -7.8190614467506760e+00  -7.7891894476134409e+00  -7.7639172622229955e+00  -7.7439925243610208e+00  -7.7300217802127822e+00  -7.7223930894839725e+00  -7.7210661976884571e+00  -8.2379726586369859e+00  -8.2365508620110752e+00  -8.2279650002651490e+00  -8.2122925369671904e+00  -8.1900661802184125e+00  -8.1620381518569403e+00  -8.1290903027491872e+00  -8.0921779875750612e+00  -8.0522913910893550e+00  -8.0104318024798431e+00  -7.9676005906559988e+00  -7.9247972225971512e+00  -7.8830216822749186e+00  -7.8432762293894056e+00  -7.8065614782042108e+00  -7.7738623065241201e+00  -7.7461202505519928e+00  -7.7241905435913925e+00  -7.7087813375762133e+00  -7.7003573684995823e+00  -7.6988976678321039e+00  -8.2620450449156575e+00  -8.2604622981400802e+00  -8.2509804158789439e+00  -8.2337255755743151e+00  -8.2093422347676004e+00  -8.1787146412218981e+00  -8.1428521743126066e+00  -8.1028179481154066e+00  -8.0596835861415457e+00  -8.0145063594821977e+00  -7.9683244216550655e+00  -7.9221643879329955e+00  -7.8770547764267063e+00  -7.8340386099757779e+00  -7.7941784681832740e+00  -7.7585475434667472e+00  -7.7282011886890505e+00  -7.7041252148231409e+00  -7.6871575930612703e+00  -7.6778656205068749e+00  -7.6762615512114936e+00  -8.2862941178071541e+00  -8.2845319634946897e+00  -8.2740666286553424e+00  -8.2550996613429763e+00  -8.2284272541706276e+00  -8.1951037822422474e+00  -8.1562925236877888e+00  -8.1131748394459962e+00  -8.0668988421242513e+00  -8.0185605225020993e+00  -7.9692094161880886e+00  -7.9198700721010526e+00  -7.8715707762406417e+00  -7.8253713093645239e+00  -7.7823813933802279e+00  -7.7437610195804165e+00  -7.7106938387017134e+00  -7.6843261641645562e+00  -7.6656655530123201e+00  -7.6554202964987725e+00  -7.6536578788863743e+00  -8.3100731491411679e+00  -8.3081084781496823e+00  -8.2965519675286856e+00  -8.2757233716591010e+00  -8.2466305227928185e+00  -8.2105508108042358e+00  -8.1688338150716842e+00  -8.1227875905751894e+00  -8.0736243337140916e+00  -8.0224512842397964e+00  -7.9702927279541589e+00  -7.9181304294563066e+00  -7.8669521075761724e+00  -7.8177989731686619e+00  -7.7718030229988013e+00  -7.7302028595790633e+00  -7.6943244784363225e+00  -7.6655127866689563e+00  -7.6450011291928401e+00  -7.6336968505636698e+00  -7.6317580111470065e+00  -8.3325230349272665e+00  -8.3303248114783379e+00  -8.3175357112826269e+00  -8.2946643826861646e+00  -8.2630210313308385e+00  -8.2241781990284704e+00  -8.1797085396910596e+00  -8.1310485256755189e+00  -8.0794498229224079e+00  -8.0259899656887566e+00  -7.9716184954170384e+00  -7.9172214549503845e+00  -7.8636931838801916e+00  -7.8120075126001884e+00  -7.7632798480460803e+00  -7.7188073387063243e+00  -7.6800675194487571e+00  -7.6486497221728582e+00  -7.6260918474115673e+00  -7.6135893865117694e+00  -7.6114491785209628e+00  -8.3525166200137821e+00  -8.3500397357514498e+00  -8.3358207552855852e+00  -8.3106776437138041e+00  -8.2763609308064634e+00  -8.2348324832772999e+00  -8.1879223559254122e+00  -8.1371810973673302e+00  -8.0838559819917020e+00  -8.0289372620318549e+00  -7.9732375398716036e+00  -7.9174838184786331e+00  -7.8624133152994773e+00  -7.8088694731569666e+00  -7.7578937593568487e+00  -7.7108015475686864e+00  -7.6692165876552094e+00  -7.6350210929831954e+00  -7.6101650430448169e+00  -7.5962706149230019e+00  -7.5938925692200696e+00  -8.3685840884882623e+00  -8.3657571017526156e+00  -8.3498185474097593e+00  -8.3221082054908138e+00  -8.2850244993094488e+00  -8.2410298951603540e+00  -8.1922259536365463e+00  -8.1402303665036833e+00  -8.0862139025855431e+00  -8.0310040388900674e+00  -7.9752055659584631e+00  -7.9193192250454425e+00  -7.8638565927832218e+00  -7.8094564330588181e+00  -7.7570069855908166e+00  -7.7077692805716644e+00  -7.6634747088446069e+00  -7.6263331709140569e+00  -7.5988446350284562e+00  -7.5832749271159070e+00  -7.5806030806861209e+00  -8.3788067914939646e+00  -8.3755051496977213e+00  -8.3574058227895414e+00  -8.3267576352277448e+00  -8.2869062858720195e+00  -8.2409154192805421e+00  -8.1911140891345138e+00  -8.1390827388438201e+00  -8.0858073035005429e+00  -8.0318632885979362e+00  -7.9775788925614446e+00  -7.9231708507147021e+00  -7.8688650650835097e+00  -7.8150200766758395e+00  -7.7622714551750658e+00  -7.7117078893197535e+00  -7.6650648848906950e+00  -7.6248612521847736e+00  -7.5942982895754616e+00  -7.5766222730325694e+00  -7.5735668484069238e+00  -8.3806547020111477e+00  -8.3766353024530869e+00  -8.3556937017923154e+00  -8.3217032050450701e+00  -8.2793379357772867e+00  -8.2322696773526491e+00  -8.1828858957196200e+00  -8.1325409019825035e+00  -8.0818934811960172e+00  -8.0311803000723714e+00  -7.9804066508852838e+00  -7.9294782761466536e+00  -7.8783056016995454e+00  -7.8269114510168034e+00  -7.7755746750930346e+00  -7.7250445630149107e+00  -7.6768503669250130e+00  -7.6336643104177124e+00  -7.5994800312496196e+00  -7.5790213604619199e+00  -7.5754309992534443e+00  -8.3707154373673962e+00  -8.3654393066980912e+00  -8.3406383221223415e+00  -8.3030796200175629e+00  -8.2590771428800220e+00  -8.2126359285162369e+00  -8.1658221385606637e+00  -8.1194880467655732e+00  -8.0738202936763077e+00  -8.0286676147075973e+00  -7.9837186416425396e+00  -7.9385979509907241e+00  -7.8929282983280125e+00  -7.8463954011659780e+00  -7.7988538060136889e+00  -7.7505300532372310e+00  -7.7024092925083103e+00  -7.6568889684221944e+00  -7.6185650180647144e+00  -7.5942455399867246e+00  -7.5898471273853945e+00  -8.3441784039331228e+00  -8.3363170492937293e+00  -8.3064016120412791e+00  -8.2659319868409700e+00  -8.2225377517787042e+00  -8.1796992136736897e+00  -8.1385527219827356e+00  -8.0991713063150410e+00  -8.0612068051313148e+00  -8.0241648841433619e+00  -7.9875081602271107e+00  -7.9506867941979289e+00  -7.9131431800416223e+00  -7.8743168077904349e+00  -7.8336767747329148e+00  -7.7908353702135713e+00  -7.7458666373849701e+00  -7.7001017458705965e+00  -7.6577742442763075e+00  -7.6279432674947794e+00  -7.6221906857207102e+00  -8.2935452851840878e+00  -8.2798196830841722e+00  -8.2445419076225424e+00  -8.2045843995684660e+00  -8.1666313846753287e+00  -8.1321014734836705e+00  -8.1006644647081618e+00  -8.0715927694312697e+00  -8.0441607536116031e+00  -8.0177238501093662e+00  -7.9917050726058712e+00  -7.9655588233285748e+00  -7.9387299000386875e+00  -7.9106105660212034e+00  -7.8804978953807359e+00  -7.8475680862738315e+00  -7.8109427172055561e+00  -7.7701277362166454e+00  -7.7267774803118439e+00  -7.6897697640269831e+00  -7.6813628400425138e+00  -8.2036914839834676e+00  -8.1782646295523538e+00  -8.1442863889362567e+00  -8.1148070863185175e+00  -8.0907842995152599e+00  -8.0707681974688636e+00  -8.0534371732984393e+00  -8.0378668579814381e+00  -8.0234185268090012e+00  -8.0096234101857018e+00  -7.9961039297531515e+00  -7.9825199115006358e+00  -7.9685254400046324e+00  -7.9537241787158539e+00  -7.9376097561596151e+00  -7.9194713591343788e+00  -7.8982349303273187e+00  -7.8722350357153115e+00  -7.8392517718113002e+00  -7.7998224519448494e+00  -7.7857527574807124e+00  -8.0000000000000000e+00  -8.0000000000000000e+00  -8.0000000000000000e+00  -8.0000000000000000e+00  -8.0000000000000000e+00  -8.0000000000000000e+00  -8.0000000000000000e+00  -8.0000000000000000e+00  -8.0000000000000000e+00  -8.0000000000000000e+00  -8.0000000000000000e+00  -8.0000000000000000e+00  -8.0000000000000000e+00  -8.0000000000000000e+00  -8.0000000000000000e+00  -8.0000000000000000e+00  -8.0000000000000000e+00  -8.0000000000000000e+00  -8.0000000000000000e+00  -8.0000000000000000e+00  -8.0000000000000000e+00  </DataArray> 
</PointData> 
</Piece>
</UnstructuredGrid>
</VTKFile>