<?xml version="1.0"?>
<VTKFile type="UnstructuredGrid"  version="0.1"  >
<UnstructuredGrid>
<Piece  NumberOfPoints="651" NumberOfCells="1200">
<Points>
<DataArray  type="Float64"  NumberOfComponents="3"  format="ascii">0 0 0  50000 0 0  100000 0 0  150000 0 0  200000 0 0  250000 0 0  300000 0 0  350000 0 0  400000 0 0  450000 0 0  500000 0 0  550000 0 0  600000 0 0  650000 0 0  700000 0 0  750000 0 0  800000 0 0  850000 0 0  900000 0 0  950000 0 0  1000000 0 0  0 50000 0  50000 50000 0  100000 50000 0  150000 50000 0  200000 50000 0  250000 50000 0  300000 50000 0  350000 50000 0  400000 50000 0  450000 50000 0  500000 50000 0  550000 50000 0  600000 50000 0  650000 50000 0  700000 50000 0  750000 50000 0  800000 50000 0  850000 50000 0  900000 50000 0  950000 50000 0  1000000 50000 0  0 100000 0  50000 100000 0  100000 100000 0  150000 100000 0  200000 100000 0  250000 100000 0  300000 100000 0  350000 100000 0  400000 100000 0  450000 100000 0  500000 100000 0  550000 100000 0  600000 100000 0  650000 100000 0  700000 100000 0  750000 100000 0  800000 100000 0  850000 100000 0  900000 100000 0  950000 100000 0  1000000 100000 0  0 150000 0  50000 150000 0  100000 150000 0  150000 150000 0  200000 150000 0  250000 150000 0  300000 150000 0  350000 150000 0  400000 150000 0  450000 150000 0  500000 150000 0  550000 150000 0  600000 150000 0  650000 150000 0  700000 150000 0  750000 150000 0  800000 150000 0  850000 150000 0  900000 150000 0  950000 150000 0  1000000 150000 0  0 200000 0  50000 200000 0  100000 200000 0  150000 200000 0  200000 200000 0  250000 200000 0  300000 200000 0  350000 200000 0  400000 200000 0  450000 200000 0  500000 200000 0  550000 200000 0  600000 200000 0  650000 200000 0  700000 200000 0  750000 200000 0  800000 200000 0  850000 200000 0  900000 200000 0  950000 200000 0  1000000 200000 0  0 250000 0  50000 250000 0  100000 250000 0  150000 250000 0  200000 250000 0  250000 250000 0  300000 250000 0  350000 250000 0  400000 250000 0  450000 250000 0  500000 250000 0  550000 250000 0  600000 250000 0  650000 250000 0  700000 250000 0  750000 250000 0  800000 250000 0  850000 250000 0  900000 250000 0  950000 250000 0  1000000 250000 0  0 300000 0  50000 300000 0  100000 300000 0  150000 300000 0  200000 300000 0  250000 300000 0  300000 300000 0  350000 300000 0  400000 300000 0  450000 300000 0  500000 300000 0  550000 300000 0  600000 300000 0  650000 300000 0  700000 300000 0  750000 300000 0  800000 300000 0  850000 300000 0  900000 300000 0  950000 300000 0  1000000 300000 0  0 350000 0  50000 350000 0  100000 350000 0  150000 350000 0  200000 350000 0  250000 350000 0  300000 350000 0  350000 350000 0  400000 350000 0  450000 350000 0  500000 350000 0  550000 350000 0  600000 350000 0  650000 350000 0  700000 350000 0  750000 350000 0  800000 350000 0  850000 350000 0  900000 350000 0  950000 350000 0  1000000 350000 0  0 400000 0  50000 400000 0  100000 400000 0  150000 400000 0  200000 400000 0  250000 400000 0  300000 400000 0  350000 400000 0  400000 400000 0  450000 400000 0  500000 400000 0  550000 400000 0  600000 400000 0  650000 400000 0  700000 400000 0  750000 400000 0  800000 400000 0  850000 400000 0  900000 400000 0  950000 400000 0  1000000 400000 0  0 450000 0  50000 450000 0  100000 450000 0  150000 450000 0  200000 450000 0  250000 450000 0  300000 450000 0  350000 450000 0  400000 450000 0  450000 450000 0  500000 450000 0  550000 450000 0  600000 450000 0  650000 450000 0  700000 450000 0  750000 450000 0  800000 450000 0  850000 450000 0  900000 450000 0  950000 450000 0  1000000 450000 0  0 500000 0  50000 500000 0  100000 500000 0  150000 500000 0  200000 500000 0  250000 500000 0  300000 500000 0  350000 500000 0  400000 500000 0  450000 500000 0  500000 500000 0  550000 500000 0  600000 500000 0  650000 500000 0  700000 500000 0  750000 500000 0  800000 500000 0  850000 500000 0  900000 500000 0  950000 500000 0  1000000 500000 0  0 550000 0  50000 550000 0  100000 550000 0  150000 550000 0  200000 550000 0  250000 550000 0  300000 550000 0  350000 550000 0  400000 550000 0  450000 550000 0  500000 550000 0  550000 550000 0  600000 550000 0  650000 550000 0  700000 550000 0  750000 550000 0  800000 550000 0  850000 550000 0  900000 550000 0  950000 550000 0  1000000 550000 0  0 600000 0  50000 600000 0  100000 600000 0  150000 600000 0  200000 600000 0  250000 600000 0  300000 600000 0  350000 600000 0  400000 600000 0  450000 600000 0  500000 600000 0  550000 600000 0  600000 600000 0  650000 600000 0  700000 600000 0  750000 600000 0  800000 600000 0  850000 600000 0  900000 600000 0  950000 600000 0  1000000 600000 0  0 650000 0  50000 650000 0  100000 650000 0  150000 650000 0  200000 650000 0  250000 650000 0  300000 650000 0  350000 650000 0  400000 650000 0  450000 650000 0  500000 650000 0  550000 650000 0  600000 650000 0  650000 650000 0  700000 650000 0  750000 650000 0  800000 650000 0  850000 650000 0  900000 650000 0  950000 650000 0  1000000 650000 0  0 700000 0  50000 700000 0  100000 700000 0  150000 700000 0  200000 700000 0  250000 700000 0  300000 700000 0  350000 700000 0  400000 700000 0  450000 700000 0  500000 700000 0  550000 700000 0  600000 700000 0  650000 700000 0  700000 700000 0  750000 700000 0  800000 700000 0  850000 700000 0  900000 700000 0  950000 700000 0  1000000 700000 0  0 750000 0  50000 750000 0  100000 750000 0  150000 750000 0  200000 750000 0  250000 750000 0  300000 750000 0  350000 750000 0  400000 750000 0  450000 750000 0  500000 750000 0  550000 750000 0  600000 750000 0  650000 750000 0  700000 750000 0  750000 750000 0  800000 750000 0  850000 750000 0  900000 750000 0  950000 750000 0  1000000 750000 0  0 800000 0  50000 800000 0  100000 800000 0  150000 800000 0  200000 800000 0  250000 800000 0  300000 800000 0  350000 800000 0  400000 800000 0  450000 800000 0  500000 800000 0  550000 800000 0  600000 800000 0  650000 800000 0  700000 800000 0  750000 800000 0  800000 800000 0  850000 800000 0  900000 800000 0  950000 800000 0  1000000 800000 0  0 850000 0  50000 850000 0  100000 850000 0  150000 850000 0  200000 850000 0  250000 850000 0  300000 850000 0  350000 850000 0  400000 850000 0  450000 850000 0  500000 850000 0  550000 850000 0  600000 850000 0  650000 850000 0  700000 850000 0  750000 850000 0  800000 850000 0  850000 850000 0  900000 850000 0  950000 850000 0  1000000 850000 0  0 900000 0  50000 900000 0  100000 900000 0  150000 900000 0  200000 900000 0  250000 900000 0  300000 900000 0  350000 900000 0  400000 900000 0  450000 900000 0  500000 900000 0  550000 900000 0  600000 900000 0  650000 900000 0  700000 900000 0  750000 900000 0  800000 900000 0  850000 900000 0  900000 900000 0  950000 900000 0  1000000 900000 0  0 950000 0  50000 950000 0  100000 950000 0  150000 950000 0  200000 950000 0  250000 950000 0  300000 950000 0  350000 950000 0  400000 950000 0  450000 950000 0  500000 950000 0  550000 950000 0  600000 950000 0  650000 950000 0  700000 950000 0  750000 950000 0  800000 950000 0  850000 950000 0  900000 950000 0  950000 950000 0  1000000 950000 0  0 1000000 0  50000 1000000 0  100000 1000000 0  150000 1000000 0  200000 1000000 0  250000 1000000 0  300000 1000000 0  350000 1000000 0  400000 1000000 0  450000 1000000 0  500000 1000000 0  550000 1000000 0  600000 1000000 0  650000 1000000 0  700000 1000000 0  750000 1000000 0  800000 1000000 0  850000 1000000 0  900000 1000000 0  950000 1000000 0  1000000 1000000 0  0 1050000 0  50000 1050000 0  100000 1050000 0  150000 1050000 0  200000 1050000 0  250000 1050000 0  300000 1050000 0  350000 1050000 0  400000 1050000 0  450000 1050000 0  500000 1050000 0  550000 1050000 0  600000 1050000 0  650000 1050000 0  700000 1050000 0  750000 1050000 0  800000 1050000 0  850000 1050000 0  900000 1050000 0  950000 1050000 0  1000000 1050000 0  0 1100000 0  50000 1100000 0  100000 1100000 0  150000 1100000 0  200000 1100000 0  250000 1100000 0  300000 1100000 0  350000 1100000 0  400000 1100000 0  450000 1100000 0  500000 1100000 0  550000 1100000 0  600000 1100000 0  650000 1100000 0  700000 1100000 0  750000 1100000 0  800000 1100000 0  850000 1100000 0  900000 1100000 0  950000 1100000 0  1000000 1100000 0  0 1150000 0  50000 1150000 0  100000 1150000 0  150000 1150000 0  200000 1150000 0  250000 1150000 0  300000 1150000 0  350000 1150000 0  400000 1150000 0  450000 1150000 0  500000 1150000 0  550000 1150000 0  600000 1150000 0  650000 1150000 0  700000 1150000 0  750000 1150000 0  800000 1150000 0  850000 1150000 0  900000 1150000 0  950000 1150000 0  1000000 1150000 0  0 1200000 0  50000 1200000 0  100000 1200000 0  150000 1200000 0  200000 1200000 0  250000 1200000 0  300000 1200000 0  350000 1200000 0  400000 1200000 0  450000 1200000 0  500000 1200000 0  550000 1200000 0  600000 1200000 0  650000 1200000 0  700000 1200000 0  750000 1200000 0  800000 1200000 0  850000 1200000 0  900000 1200000 0  950000 1200000 0  1000000 1200000 0  0 1250000 0  50000 1250000 0  100000 1250000 0  150000 1250000 0  200000 1250000 0  250000 1250000 0  300000 1250000 0  350000 1250000 0  400000 1250000 0  450000 1250000 0  500000 1250000 0  550000 1250000 0  600000 1250000 0  650000 1250000 0  700000 1250000 0  750000 1250000 0  800000 1250000 0  850000 1250000 0  900000 1250000 0  950000 1250000 0  1000000 1250000 0  0 1300000 0  50000 1300000 0  100000 1300000 0  150000 1300000 0  200000 1300000 0  250000 1300000 0  300000 1300000 0  350000 1300000 0  400000 1300000 0  450000 1300000 0  500000 1300000 0  550000 1300000 0  600000 1300000 0  650000 1300000 0  700000 1300000 0  750000 1300000 0  800000 1300000 0  850000 1300000 0  900000 1300000 0  950000 1300000 0  1000000 1300000 0  0 1350000 0  50000 1350000 0  100000 1350000 0  150000 1350000 0  200000 1350000 0  250000 1350000 0  300000 1350000 0  350000 1350000 0  400000 1350000 0  450000 1350000 0  500000 1350000 0  550000 1350000 0  600000 1350000 0  650000 1350000 0  700000 135
[...]
<PointData  Scalars="f_1511"> 
<DataArray  type="Float64"  Name="f_1511"  format="ascii">-8.0013462116192784e+00  -8.0013304480991589e+00  -8.0012829569771391e+00  -8.0012037870156618e+00  -8.0010940552696770e+00  -8.0009558960138865e+00  -8.0007923993764027e+00  -8.0006075166449691e+00  -8.0004059320210636e+00  -8.0001929052541438e+00  -7.9999740914219766e+00  -7.9997553450925771e+00  -7.9995425166443486e+00  -7.9993412487699151e+00  -7.9991567811934425e+00  -7.9989937713958863e+00  -7.9988561386406651e+00  -7.9987469377541149e+00  -7.9986682677885446e+00  -7.9986212182694549e+00  -7.9986058425831619e+00  -8.0013609181889453e+00  -8.0013449527636258e+00  -8.0012968730978287e+00  -8.0012167939305954e+00  -8.0011058541787801e+00  -8.0009662119125640e+00  -8.0008009881387618e+00  -8.0006141721693922e+00  -8.0004104924080490e+00  -8.0001952576848101e+00  -7.9999741755853471e+00  -7.9997531550791390e+00  -7.9995381012617273e+00  -7.9993347102637946e+00  -7.9991482723803378e+00  -7.9989834912370483e+00  -7.9988443263078253e+00  -7.9987338652628051e+00  -7.9986542313944504e+00  -7.9986065301870672e+00  -7.9985908450497698e+00  -8.0014051215755924e+00  -8.0013885744403215e+00  -8.0013388046997189e+00  -8.0012560251909495e+00  -8.0011414484512393e+00  -8.0009973145162636e+00  -8.0008268458936644e+00  -8.0006341540412489e+00  -8.0004241076998852e+00  -8.0002021703776602e+00  -7.9999742141948227e+00  -7.9997463177204873e+00  -7.9995245557900265e+00  -7.9993147894774976e+00  -7.9991224643977441e+00  -7.9989524253274809e+00  -7.9988087547762134e+00  -7.9986946427043950e+00  -7.9986122945552136e+00  -7.9985628870632972e+00  -7.9985465918561829e+00  -8.0014789544946705e+00  -8.0014615008696346e+00  -8.0014090382928131e+00  -8.0013218475579855e+00  -8.0012012463474953e+00  -8.0010496139117766e+00  -8.0008703488881316e+00  -8.0006677746203660e+00  -8.0004470028728392e+00  -8.0002137646766478e+00  -7.9999742164514291e+00  -7.9997347295650885e+00  -7.9995016716379164e+00  -7.9992811879931001e+00  -7.9990789916567291e+00  -7.9989001702140561e+00  -7.9987490176732230e+00  -7.9986288994177670e+00  -7.9985421587523007e+00  -7.9984900752230832e+00  -7.9984728875626523e+00  -8.0015831186615660e+00  -8.0015644282592859e+00  -8.0015082653168044e+00  -8.0014149459566593e+00  -8.0012859073268938e+00  -8.0011237168740763e+00  -8.0009320230583167e+00  -8.0007154538269631e+00  -8.0004794716611745e+00  -8.0002301940716194e+00  -7.9999741882554147e+00  -7.9997182485676479e+00  -7.9994691654628758e+00  -7.9992334945734012e+00  -7.9990173345932263e+00  -7.9988261226246200e+00  -7.9986644556269368e+00  -7.9985359466179302e+00  -7.9984431243411986e+00  -7.9983873849269163e+00  -7.9983690018642566e+00  -8.0017187426645524e+00  -8.0016984685375068e+00  -8.0016375548714560e+00  -8.0015363294145860e+00  -8.0013963599939348e+00  -8.0012204474733739e+00  -8.0010125632558253e+00  -8.0007777349963565e+00  -8.0005218879150757e+00  -8.0002516504027223e+00  -7.9999741329371803e+00  -7.9996966893244910e+00  -7.9994266691939035e+00  -7.9991711706164468e+00  -7.9989368017215519e+00  -7.9987294602518286e+00  -7.9985541400727582e+00  -7.9984147736329714e+00  -7.9983141190124716e+00  -7.9982536989247714e+00  -7.9982337956552545e+00  -8.0018873074173253e+00  -8.0018650811222525e+00  -8.0017983058556084e+00  -8.0016873042250580e+00  -8.0015337892050606e+00  -8.0013408418262308e+00  -8.0011128317635833e+00  -8.0008552850517844e+00  -8.0005747063454393e+00  -8.0002783646463680e+00  -7.9999740518599385e+00  -7.9996698234709145e+00  -7.9993737304084318e+00  -7.9990935510150027e+00  -7.9988365320458321e+00  -7.9986091477978771e+00  -7.9984168866956704e+00  -7.9982640747267473e+00  -7.9981537446758910e+00  -7.9980875586480806e+00  -7.9980657883367217e+00  -8.0020905840916381e+00  -8.0020660120461411e+00  -8.0019921920268366e+00  -8.0018694291448966e+00  -8.0016996013223771e+00  -8.0014861215688224e+00  -8.0012338383013208e+00  -8.0009488800336346e+00  -8.0006384531371388e+00  -8.0003106024864028e+00  -7.9999739449264968e+00  -7.9996373850954789e+00  -7.9993098226224228e+00  -7.9989998593990714e+00  -7.9987155156449221e+00  -7.9984639638459267e+00  -7.9982512901838279e+00  -7.9980822934831988e+00  -7.9979603315754124e+00  -7.9978872238724890e+00  -7.9978632165825170e+00  -8.0023305663938622e+00  -8.0023032265100316e+00  -8.0022210965219376e+00  -8.0020844548852299e+00  -8.0018953706098479e+00  -8.0016576479999149e+00  -8.0013767023828599e+00  -8.0010593761845836e+00  -8.0007137063618661e+00  -8.0003486545923828e+00  -7.9999738110257557e+00  -7.9995990813184044e+00  -7.9992343656282241e+00  -7.9988892376336151e+00  -7.9985726316781935e+00  -7.9982925468199824e+00  -7.9980557776552281e+00  -7.9978676828818625e+00  -7.9977320031471564e+00  -7.9976507392901910e+00  -7.9976241003652415e+00  -8.0026093869970012e+00  -8.0025788253813257e+00  -8.0024870292640689e+00  -8.0023342445263150e+00  -8.0021227650882825e+00  -8.0018568556800052e+00  -8.0015425968307703e+00  -8.0011876654405985e+00  -8.0008010652781341e+00  -8.0003928211178152e+00  -7.9999736484632136e+00  -7.9995546086083937e+00  -7.9991467568774244e+00  -7.9987607908080305e+00  -7.9984067051036156e+00  -7.9980934613575920e+00  -7.9978286825388674e+00  -7.9976183844459703e+00  -7.9974667580680512e+00  -7.9973760173283654e+00  -7.9973463255670225e+00  -8.0029292099634777e+00  -8.0028949375998639e+00  -8.0027920199754661e+00  -8.0026206689291950e+00  -8.0023834471081852e+00  -8.0020851615383570e+00  -8.0017326690886392e+00  -8.0013346125899165e+00  -8.0009011065632816e+00  -8.0004433894164944e+00  -7.9999734554286892e+00  -7.9995036759429743e+00  -7.9990464159581567e+00  -7.9986136505363188e+00  -7.9982165855314662e+00  -7.9978652890810160e+00  -7.9975683436461082e+00  -7.9973325323286177e+00  -7.9971625766786829e+00  -7.9970609451513051e+00  -7.9970277509580665e+00  -8.0032920910601266e+00  -8.0032535803621645e+00  -8.0031379787484980e+00  -8.0029454695134685e+00  -8.0026789416226922e+00  -8.0023438431721914e+00  -8.0019479348471521e+00  -8.0015009696657913e+00  -8.0010143243515301e+00  -8.0005006033826724e+00  -7.9999732305640618e+00  -7.9994460365265079e+00  -7.9989328453959301e+00  -7.9984470610784681e+00  -7.9980012537381491e+00  -7.9976067500809931e+00  -7.9972732364047587e+00  -7.9970083898893556e+00  -7.9968175597417401e+00  -7.9967035238796207e+00  -7.9966663474393673e+00  -8.0036997970810475e+00  -8.0036564780824051e+00  -8.0035265149427683e+00  -8.0033100790717793e+00  -8.0030104630100745e+00  -8.0026338777226176e+00  -8.0021891363258799e+00  -8.0016872613266088e+00  -8.0011410496664652e+00  -8.0005646221612547e+00  -7.9999729737059164e+00  -7.9993815304615072e+00  -7.9988057123078073e+00  -7.9982604946094584e+00  -7.9977599635289138e+00  -7.9973168637058389e+00  -7.9969421453373348e+00  -7.9966445279950813e+00  -7.9964301086708947e+00  -7.9963020489308807e+00  -7.9962603783090254e+00  -8.0041535740427499e+00  -8.0041048297839961e+00  -8.0039587035638000e+00  -8.0037153892829043e+00  -8.0033786889342124e+00  -8.0029557302065175e+00  -8.0024565551780213e+00  -8.0018936329871604e+00  -8.0012813434201018e+00  -8.0006354652473295e+00  -7.9999726868930168e+00  -7.9993101415245302e+00  -7.9986649568801695e+00  -7.9980538039672782e+00  -7.9974924290146499e+00  -7.9969951597405542e+00  -7.9965743892007790e+00  -7.9962400562579923e+00  -7.9959991579509859e+00  -7.9958553417251501e+00  -7.9958086306038219e+00  -8.0046538525330195e+00  -8.0045990128591828e+00  -8.0044347862217986e+00  -8.0041614510945180e+00  -8.0037834669010479e+00  -8.0033090772651931e+00  -8.0027497672876198e+00  -8.0021196512557839e+00  -8.0014348556094870e+00  -8.0007129402144717e+00  -7.9999723757456049e+00  -7.9992320720125498e+00  -7.9985109352160784e+00  -7.9978274234497544e+00  -7.9971990700808746e+00  -7.9966419539718316e+00  -7.9961701130041387e+00  -7.9957949208679722e+00  -7.9955244724859078e+00  -7.9953630447027972e+00  -7.9953107091816698e+00  -8.0051998765841343e+00  -8.0051382090176908e+00  -8.0049537911588295e+00  -8.0046470909793879e+00  -8.0042234356536675e+00  -8.0036924488089340e+00  -8.0030673236688301e+00  -8.0023640438605508e+00  -8.0016006417699082e+00  -8.0007965485435228e+00  -7.9999720513375694e+00  -7.9991478404264367e+00  -7.9983446057137444e+00  -7.9975826306505819e+00  -7.9968813319248531e+00  -7.9962587056227798e+00  -7.9957306645999022e+00  -7.9953102857766210e+00  -7.9950070251556973e+00  -7.9948259936959989e+00  -7.9947674071597170e+00  -8.0057892400735700e+00  -8.0057199355519764e+00  -8.0055130534016037e+00  -8.0051694219065404e+00  -8.0046955390923866e+00  -8.0041027659088542e+00  -8.0034063383795964e+00  -8.0026243639833705e+00  -8.0017769264293577e+00  -8.0008853644454856e+00  -7.9999717326826811e+00  -7.9990584073504944e+00  -7.9981677694996360e+00  -7.9973218846678762e+00  -7.9965420979157447e+00  -7.9958484783107657e+00  -7.9952590779703669e+00  -7.9947890180567978e+00  -7.9944494731905200e+00  -7.9942466843485196e+00  -7.9941811687509556e+00  -8.0064173114912425e+00  -8.0063394613522920e+00  -8.0061076112866569e+00  -8.0057232221420929e+00  -8.0051944046597932e+00  -8.0045347485627385e+00  -8.0037619612811053e+00  -8.0028965624510047e+00  -8.0019608029113254e+00  -8.0009778815721067e+00  -7.9999714499202899e+00  -7.9989653348455869e+00  -7.9979833758730372e+00  -7.9970492576102776e+00  -7.9961862182782610e+00  -7.9954165310294432e+00  -7.9947606910784224e+00  -7.9942363038564555e+00  -7.9938567566040204e+00  -7.9936298528966558e+00  -7.9935566638100530e+00  -8.0070765232155576e+00  -8.0069890815121632e+00  -8.0067294482983300e+00  -8.0063001466730270e+00  -8.0057115506179723e+00  -8.0049801620010683e+00  -8.0041267117227139e+00  -8.0031744520302084e+00  -8.0021478606828715e+00  -8.0010718238467238e+00  -7.9999712481739662e+00  -7.9988709831685361e+00  -7.9977959018575326e+00  -7.9967709757078431e+00  -7.9958211791682405e+00  -7.9949710709166348e+00  -7.9942439337676854e+00  -7.9936604295167140e+00  -7.9932368489285608e+00  -7.9929831970617489e+00  -7.9929014982769537e+00  -8.0077554937111746e+00  -8.0076572150475407e+00  -8.0073665371583473e+00  -8.0068877232782434e+00  -8.0062343767862032e+00  -8.0054268660987251e+00  -8.0044896512238779e+00  -8.0034490540307903e+00  -8.0023317380067098e+00  -8.0011639206936085e+00  -7.9999711918027900e+00  -7.9987787441740057e+00  -7.9976118082543035e+00  -7.9964960806163754e+00  -7.9954579352886670e+00  -7.9945242043302747e+00  -7.9937213314227664e+00  -7.9930737750119487e+00  -7.9926017019454010e+00  -7.9923182717868793e+00  -7.9922270927561065e+00  -8.0084379373113297e+00  -8.0083272735153503e+00  -8.0080016220752146e+00  -8.0074680647864742e+00  -8.0067448806845984e+00  -8.0058576320263786e+00  -8.0048353838835524e+00  -8.0037078338532126e+00  -8.0025036131667040e+00  -8.0012496559567214e+00  -7.9999713682735205e+00  -7.9986933008970418e+00  -7.9974400586524945e+00  -7.9962372053013251e+00  -7.9951119194870115e+00  -7.9940931245352740e+00  -7.9932107837298876e+00  -7.9924940872978301e+00  -7.9919684461242220e+00  -7.9916516105303463e+00  -7.9915497758072211e+00  -8.0091012905187480e+00  -8.0089762165764338e+00  -8.0086106364056739e+00  -8.0080161953434033e+00  -8.0072180264537192e+00  -8.0062487002614233e+00  -8.0051429021919507e+00  -8.0039338682020240e+00  -8.0026516786515494e+00  -8.0013230171268575e+00  -7.9999718900431080e+00  -7.9986208839528894e+00  -7.9972926557085096e+00  -7.9960114227700210e+00  -7.9948042151970542e+00  -7.9937015668805813e+00  -7.9927371949367796e+00  -7.9919461354283206e+00  -7.9913609453114418e+00  -7.9910061527884721e+00  -7.9908921654083978e+00  -8.0097149339244460e+00  -8.0095726477018605e+00  -8.0091605794585217e+00  -8.0084978331554044e+00  -8.0076196829425026e+00  -8.0065680901341949e+00  -8.0053843611613082e+00  -8.0041050569923247e+00  -8.0027606985232378e+00  -8.0013763012666903e+00  -7.9999728915976398e+00  -7.9985694631596100e+00  -7.9971850910129270e+00  -7.9958410546102794e+00  -7.9945628137262226e+00  -7.9933815306723233e+00  -7.9923345487014776e+00  -7.9914639074044240e+00  -7.9908118746275587e+00  -7.9904131169991057e+00  -7.9902849643869516e+00  -8.0102377891540115e+00  -8.0100741731738676e+00  -8.0096065329475348e+00  -8.0088663858565692e+00  -8.0079040607596337e+00  -8.0067737683741775e+00  -8.0055239969986811e+00  -8.0041936176506496e+00  -8.0028118391908833e+00  -8.0014000794111908e+00  -7.9999745173143060e+00  -7.9985487640662907e+00  -7.9971365108748529e+00  -7.9957541980318494e+00  -7.9944237447143349e+00  -7.9931751757721727e+00  -7.9920485193803898e+00  -7.9910936046716090e+00  -7.9903656297169698e+00  -7.9899145768335256e+00  -7.9897694013373366e+00  -8.0106148621579027e+00  -8.0104234633142255e+00  -8.0098872152668843e+00  -8.0090588017296032e+00  -8.0080106811169323e+00  -8.0068120179446716e+00  -8.0055176581801408e+00  -8.0041662987385145e+00  -8.0027830899265187e+00  -8.0013834796814987e+00  -7.9999768948305361e+00  -7.9985699373906556e+00  -7.9971692678789514e+00  -7.9957845217565318e+00  -7.9944316093071066e+00  -7.9931365723356009e+00  -7.9919396312332101e+00  -7.9908978323775921e+00  -7.9900826587698672e+00  -7.9895672533925799e+00  -7.9894007728244105e+00  -8.0107718401783377e+00  -8.0105417889843071e+00  -8.0099179235883877e+00  -8.0089898634410162e+00  -8.0078612867213561e+00  -8.0066168662415915e+00  -8.0053138483174635e+00  -8.0039860221684318e+00  -8.0026507275054239e+00  -8.0013150030469760e+00  -7.9999800898853382e+00  -7.9986446556863022e+00  -7.9973073824722469e+00  -7.9959695904157773e+00  -7.9946385890558185e+00  -7.9933324517034947e+00  -7.9920866301151472e+00  -7.9909615179157774e+00  -7.9900463956916949e+00  -7.9894486231122457e+00  -7.9892540539008401e+00  -8.0106056997065966e+00  -8.0103171153725334e+00  -8.0095787479685807e+00  -8.0085449162891003e+00  -8.0073582276676891e+00  -8.0061124700516206e+00  -8.0048578090641360e+00  -8.0036159292349236e+00  -8.0023923453624946e+00  -8.0011840878321117e+00  -7.9999840450986888e+00  -7.9987834192090217e+00  -7.9975733707549974e+00  -7.9963466843020825e+00  -7.9951003144874209e+00  -7.9938399966345397e+00  -7.9925886074960264e+00  -7.9913998498306222e+00  -7.9903751523208335e+00  -7.9896679488394202e+00  -7.9894338399538114e+00  -8.0099659161511063e+00  -8.0095792089879883e+00  -8.0086949061007164e+00  -8.0075734248302748e+00  -8.0063887287897924e+00  -8.0052221002613351e+00  -8.0041007829995419e+00  -8.0030268006307193e+00  -8.0019917806559846e+00  -8.0009835064395851e+00  -7.9999885195273555e+00  -7.9989930142560448e+00  -7.9979831034867619e+00  -7.9969450738823422e+00  -7.9958662657948034e+00  -7.9947377453911788e+00  -7.9935613382924284e+00  -7.9923663129467419e+00  -7.9912431723045865e+00  -7.9903892809986630e+00  -7.9900947092089103e+00  -8.0086078756560237e+00  -8.0080413550347309e+00  -8.0070093068519430e+00  -8.0058949077014603e+00  -8.0048453825376047e+00  -8.0038892154797896e+00  -8.0030163234787519e+00  -8.0022079849233023e+00  -8.0014455714068475e+00  -8.0007123181310327e+00  -7.9999930653019700e+00  -7.9992734762764490e+00  -7.9985391372678301e+00  -7.9977746253593294e+00  -7.9969626174891131e+00  -7.9960834116178985e+00  -7.9951164109779818e+00  -7.9940492844733528e+00  -7.9929137359283695e+00  -7.9918883039967072e+00  -7.9914922023801598e+00  -8.0060178771019004e+00  -8.0051631036569368e+00  -8.0041809474921468e+00  -8.0033544290328873e+00  -8.0026802806492778e+00  -8.0021145830423848e+00  -8.0016223963958968e+00  -8.0011795995025317e+00  -8.0007692198179274e+00  -8.0003785188995646e+00  -7.9999970866633090e+00  -7.9996155339474813e+00  -7.9992244386746298e+00  -7.9988132719286664e+00  -7.9983690093679387e+00  -7.9978739909808656e+00  -7.9973023259059621e+00  -7.9966142748873148e+00  -7.9957538110715971e+00  -7.9947124124534437e+00  -7.9941609477544331e+00  -8.0000000000000000e+00  -8.0000000000000000e+00  -8.0000000000000000e+00  -8.0000000000000000e+00  -8.0000000000000000e+00  -8.0000000000000000e+00  -8.0000000000000000e+00  -8.0000000000000000e+00  -8.0000000000000000e+00  -8.0000000000000000e+00  -8.0000000000000000e+00  -8.0000000000000000e+00  -8.0000000000000000e+00  -8.0000000000000000e+00  -8.0000000000000000e+00  -8.0000000000000000e+00  -8.0000000000000000e+00  -8.0000000000000000e+00  -8.0000000000000000e+00  -8.0000000000000000e+00  -8.0000000000000000e+00  </DataArray> 
</PointData> 
</Piece>
</UnstructuredGrid>
</VTKFile>