<?xml version="1.0"?>
<VTKFile type="UnstructuredGrid"  version="0.1"  >
<UnstructuredGrid>
<Piece  NumberOfPoints="651" NumberOfCells="1200">
<Points>
<DataArray  type="Float64"  NumberOfComponents="3"  format="ascii">0 0 0  50000 0 0  100000 0 0  150000 0 0  200000 0 0  250000 0 0  300000 0 0  350000 0 0  400000 0 0  450000 0 0  500000 0 0  550000 0 0  600000 0 0  650000 0 0  700000 0 0  750000 0 0  800000 0 0  850000 0 0  900000 0 0  950000 0 0  1000000 0 0  0 50000 0  50000 50000 0  100000 50000 0  150000 50000 0  200000 50000 0  250000 50000 0  300000 50000 0  350000 50000 0  400000 50000 0  450000 50000 0  500000 50000 0  550000 50000 0  600000 50000 0  650000 50000 0  700000 50000 0  750000 50000 0  800000 50000 0  850000 50000 0  900000 50000 0  950000 50000 0  1000000 50000 0  0 100000 0  50000 100000 0  100000 100000 0  150000 100000 0  200000 100000 0  250000 100000 0  300000 100000 0  350000 100000 0  400000 100000 0  450000 100000 0  500000 100000 0  550000 100000 0  600000 100000 0  650000 100000 0  700000 100000 0  750000 100000 0  800000 100000 0  850000 100000 0  900000 100000 0  950000 100000 0  1000000 100000 0  0 150000 0  50000 150000 0  100000 150000 0  150000 150000 0  200000 150000 0  250000 150000 0  300000 150000 0  350000 150000 0  400000 150000 0  450000 150000 0  500000 150000 0  550000 150000 0  600000 150000 0  650000 150000 0  700000 150000 0  750000 150000 0  800000 150000 0  850000 150000 0  900000 150000 0  950000 150000 0  1000000 150000 0  0 200000 0  50000 200000 0  100000 200000 0  150000 200000 0  200000 200000 0  250000 200000 0  300000 200000 0  350000 200000 0  400000 200000 0  450000 200000 0  500000 200000 0  550000 200000 0  600000 200000 0  650000 200000 0  700000 200000 0  750000 200000 0  800000 200000 0  850000 200000 0  900000 200000 0  950000 200000 0  1000000 200000 0  0 250000 0  50000 250000 0  100000 250000 0  150000 250000 0  200000 250000 0  250000 250000 0  300000 250000 0  350000 250000 0  400000 250000 0  450000 250000 0  500000 250000 0  550000 250000 0  600000 250000 0  650000 250000 0  700000 250000 0  750000 250000 0  800000 250000 0  850000 250000 0  900000 250000 0  950000 250000 0  1000000 250000 0  0 300000 0  50000 300000 0  100000 300000 0  150000 300000 0  200000 300000 0  250000 300000 0  300000 300000 0  350000 300000 0  400000 300000 0  450000 300000 0  500000 300000 0  550000 300000 0  600000 300000 0  650000 300000 0  700000 300000 0  750000 300000 0  800000 300000 0  850000 300000 0  900000 300000 0  950000 300000 0  1000000 300000 0  0 350000 0  50000 350000 0  100000 350000 0  150000 350000 0  200000 350000 0  250000 350000 0  300000 350000 0  350000 350000 0  400000 350000 0  450000 350000 0  500000 350000 0  550000 350000 0  600000 350000 0  650000 350000 0  700000 350000 0  750000 350000 0  800000 350000 0  850000 350000 0  900000 350000 0  950000 350000 0  1000000 350000 0  0 400000 0  50000 400000 0  100000 400000 0  150000 400000 0  200000 400000 0  250000 400000 0  300000 400000 0  350000 400000 0  400000 400000 0  450000 400000 0  500000 400000 0  550000 400000 0  600000 400000 0  650000 400000 0  700000 400000 0  750000 400000 0  800000 400000 0  850000 400000 0  900000 400000 0  950000 400000 0  1000000 400000 0  0 450000 0  50000 450000 0  100000 450000 0  150000 450000 0  200000 450000 0  250000 450000 0  300000 450000 0  350000 450000 0  400000 450000 0  450000 450000 0  500000 450000 0  550000 450000 0  600000 450000 0  650000 450000 0  700000 450000 0  750000 450000 0  800000 450000 0  850000 450000 0  900000 450000 0  950000 450000 0  1000000 450000 0  0 500000 0  50000 500000 0  100000 500000 0  150000 500000 0  200000 500000 0  250000 500000 0  300000 500000 0  350000 500000 0  400000 500000 0  450000 500000 0  500000 500000 0  550000 500000 0  600000 500000 0  650000 500000 0  700000 500000 0  750000 500000 0  800000 500000 0  850000 500000 0  900000 500000 0  950000 500000 0  1000000 500000 0  0 550000 0  50000 550000 0  100000 550000 0  150000 550000 0  200000 550000 0  250000 550000 0  300000 550000 0  350000 550000 0  400000 550000 0  450000 550000 0  500000 550000 0  550000 550000 0  600000 550000 0  650000 550000 0  700000 550000 0  750000 550000 0  800000 550000 0  850000 550000 0  900000 550000 0  950000 550000 0  1000000 550000 0  0 600000 0  50000 600000 0  100000 600000 0  150000 600000 0  200000 600000 0  250000 600000 0  300000 600000 0  350000 600000 0  400000 600000 0  450000 600000 0  500000 600000 0  550000 600000 0  600000 600000 0  650000 600000 0  700000 600000 0  750000 600000 0  800000 600000 0  850000 600000 0  900000 600000 0  950000 600000 0  1000000 600000 0  0 650000 0  50000 650000 0  100000 650000 0  150000 650000 0  200000 650000 0  250000 650000 0  300000 650000 0  350000 650000 0  400000 650000 0  450000 650000 0  500000 650000 0  550000 650000 0  600000 650000 0  650000 650000 0  700000 650000 0  750000 650000 0  800000 650000 0  850000 650000 0  900000 650000 0  950000 650000 0  1000000 650000 0  0 700000 0  50000 700000 0  100000 700000 0  150000 700000 0  200000 700000 0  250000 700000 0  300000 700000 0  350000 700000 0  400000 700000 0  450000 700000 0  500000 700000 0  550000 700000 0  600000 700000 0  650000 700000 0  700000 700000 0  750000 700000 0  800000 700000 0  850000 700000 0  900000 700000 0  950000 700000 0  1000000 700000 0  0 750000 0  50000 750000 0  100000 750000 0  150000 750000 0  200000 750000 0  250000 750000 0  300000 750000 0  350000 750000 0  400000 750000 0  450000 750000 0  500000 750000 0  550000 750000 0  600000 750000 0  650000 750000 0  700000 750000 0  750000 750000 0  800000 750000 0  850000 750000 0  900000 750000 0  950000 750000 0  1000000 750000 0  0 800000 0  50000 800000 0  100000 800000 0  150000 800000 0  200000 800000 0  250000 800000 0  300000 800000 0  350000 800000 0  400000 800000 0  450000 800000 0  500000 800000 0  550000 800000 0  600000 800000 0  650000 800000 0  700000 800000 0  750000 800000 0  800000 800000 0  850000 800000 0  900000 800000 0  950000 800000 0  1000000 800000 0  0 850000 0  50000 850000 0  100000 850000 0  150000 850000 0  200000 850000 0  250000 850000 0  300000 850000 0  350000 850000 0  400000 850000 0  450000 850000 0  500000 850000 0  550000 850000 0  600000 850000 0  650000 850000 0  700000 850000 0  750000 850000 0  800000 850000 0  850000 850000 0  900000 850000 0  950000 850000 0  1000000 850000 0  0 900000 0  50000 900000 0  100000 900000 0  150000 900000 0  200000 900000 0  250000 900000 0  300000 900000 0  350000 900000 0  400000 900000 0  450000 900000 0  500000 900000 0  550000 900000 0  600000 900000 0  650000 900000 0  700000 900000 0  750000 900000 0  800000 900000 0  850000 900000 0  900000 900000 0  950000 900000 0  1000000 900000 0  0 950000 0  50000 950000 0  100000 950000 0  150000 950000 0  200000 950000 0  250000 950000 0  300000 950000 0  350000 950000 0  400000 950000 0  450000 950000 0  500000 950000 0  550000 950000 0  600000 950000 0  650000 950000 0  700000 950000 0  750000 950000 0  800000 950000 0  850000 950000 0  900000 950000 0  950000 950000 0  1000000 950000 0  0 1000000 0  50000 1000000 0  100000 1000000 0  150000 1000000 0  200000 1000000 0  250000 1000000 0  300000 1000000 0  350000 1000000 0  400000 1000000 0  450000 1000000 0  500000 1000000 0  550000 1000000 0  600000 1000000 0  650000 1000000 0  700000 1000000 0  750000 1000000 0  800000 1000000 0  850000 1000000 0  900000 1000000 0  950000 1000000 0  1000000 1000000 0  0 1050000 0  50000 1050000 0  100000 1050000 0  150000 1050000 0  200000 1050000 0  250000 1050000 0  300000 1050000 0  350000 1050000 0  400000 1050000 0  450000 1050000 0  500000 1050000 0  550000 1050000 0  600000 1050000 0  650000 1050000 0  700000 1050000 0  750000 1050000 0  800000 1050000 0  850000 1050000 0  900000 1050000 0  950000 1050000 0  1000000 1050000 0  0 1100000 0  50000 1100000 0  100000 1100000 0  150000 1100000 0  200000 1100000 0  250000 1100000 0  300000 1100000 0  350000 1100000 0  400000 1100000 0  450000 1100000 0  500000 1100000 0  550000 1100000 0  600000 1100000 0  650000 1100000 0  700000 1100000 0  750000 1100000 0  800000 1100000 0  850000 1100000 0  900000 1100000 0  950000 1100000 0  1000000 1100000 0  0 1150000 0  50000 1150000 0  100000 1150000 0  150000 1150000 0  200000 1150000 0  250000 1150000 0  300000 1150000 0  350000 1150000 0  400000 1150000 0  450000 1150000 0  500000 1150000 0  550000 1150000 0  600000 1150000 0  650000 1150000 0  700000 1150000 0  750000 1150000 0  800000 1150000 0  850000 1150000 0  900000 1150000 0  950000 1150000 0  1000000 1150000 0  0 1200000 0  50000 1200000 0  100000 1200000 0  150000 1200000 0  200000 1200000 0  250000 1200000 0  300000 1200000 0  350000 1200000 0  400000 1200000 0  450000 1200000 0  500000 1200000 0  550000 1200000 0  600000 1200000 0  650000 1200000 0  700000 1200000 0  750000 1200000 0  800000 1200000 0  850000 1200000 0  900000 1200000 0  950000 1200000 0  1000000 1200000 0  0 1250000 0  50000 1250000 0  100000 1250000 0  150000 1250000 0  200000 1250000 0  250000 1250000 0  300000 1250000 0  350000 1250000 0  400000 1250000 0  450000 1250000 0  500000 1250000 0  550000 1250000 0  600000 1250000 0  650000 1250000 0  700000 1250000 0  750000 1250000 0  800000 1250000 0  850000 1250000 0  900000 1250000 0  950000 1250000 0  1000000 1250000 0  0 1300000 0  50000 1300000 0  100000 1300000 0  150000 1300000 0  200000 1300000 0  250000 1300000 0  300000 1300000 0  350000 1300000 0  400000 1300000 0  450000 1300000 0  500000 1300000 0  550000 1300000 0  600000 1300000 0  650000 1300000 0  700000 1300000 0  750000 1300000 0  800000 1300000 0  850000 1300000 0  900000 1300000 0  950000 1300000 0  1000000 1300000 0  0 1350000 0  50000 1350000 0  100000 1350000 0  150000 1350000 0  200000 1350000 0  250000 1350000 0  300000 1350000 0  350000 1350000 0  400000 1350000 0  450000 1350000 0  500000 1350000 0  550000 1350000 0  600000 1350000 0  650000 1350000 0  700000 135
[...]
<PointData  Scalars="f_1511"> 
<DataArray  type="Float64"  Name="f_1511"  format="ascii">-8.0188860695977251e+00  -8.0186205696857904e+00  -8.0173254394899161e+00  -8.0149964013997881e+00  -8.0116931255568726e+00  -8.0075029769311357e+00  -8.0025369456673001e+00  -7.9969264528528834e+00  -7.9908197926116946e+00  -7.9843781461394467e+00  -7.9777712668837601e+00  -7.9711729534854889e+00  -7.9647564287069841e+00  -7.9586897440975140e+00  -7.9531313345422765e+00  -7.9482258631535370e+00  -7.9441005591457285e+00  -7.9408624459710602e+00  -7.9385970842376476e+00  -7.9373643088058206e+00  -7.9370948137446717e+00  -8.0191356511715313e+00  -8.0188758176749015e+00  -8.0175622693626813e+00  -8.0152177325200569e+00  -8.0118971040256373e+00  -8.0076861447160717e+00  -8.0026954676718187e+00  -7.9970567147445921e+00  -7.9909187068043028e+00  -7.9844433241657491e+00  -7.9778011221827079e+00  -7.9711667585695718e+00  -7.9647143351008296e+00  -7.9586127655400132e+00  -7.9530212853053772e+00  -7.9480852189213023e+00  -7.9439321057728405e+00  -7.9406681643452028e+00  -7.9383744207238198e+00  -7.9370988426116540e+00  -7.9368292837879348e+00  -8.0203491134587885e+00  -8.0201065574263968e+00  -8.0187625503381685e+00  -8.0163472892159806e+00  -8.0129264275952234e+00  -8.0085900652831814e+00  -8.0034521400616931e+00  -7.9976478339565666e+00  -7.9913299844537056e+00  -7.9846649161477599e+00  -7.9778279257467739e+00  -7.9709985647003894e+00  -7.9643558367718779e+00  -7.9580734245832758e+00  -7.9523150622841783e+00  -7.9472301785613171e+00  -7.9429499453323595e+00  -7.9395838684374187e+00  -7.9372169253546154e+00  -7.9359060334901841e+00  -7.9356632883067499e+00  -8.0225118151744734e+00  -8.0222714724527808e+00  -8.0208765926294792e+00  -8.0183463437911353e+00  -8.0147530925883395e+00  -8.0101951787915020e+00  -8.0047940760310183e+00  -7.9986925222587004e+00  -7.9920513177424093e+00  -7.9850452214429852e+00  -7.9778583338592508e+00  -7.9706792040352177e+00  -7.9636958259006301e+00  -7.9570906630252729e+00  -7.9510358401032502e+00  -7.9456886576105097e+00  -7.9411876229367087e+00  -7.9376492119020803e+00  -7.9351652638120775e+00  -7.9337982719142763e+00  -7.9335549693997924e+00  -8.0255910792460075e+00  -8.0253435631123491e+00  -8.0238688549973869e+00  -8.0211765382645108e+00  -8.0173418999807335e+00  -8.0124717346301626e+00  -8.0066977289982209e+00  -8.0001736684086442e+00  -7.9930721045438631e+00  -7.9855801629730792e+00  -7.9778947599684500e+00  -7.9702174845906573e+00  -7.9627493408754031e+00  -7.9556855133319138e+00  -7.9492103143996058e+00  -7.9434924877205990e+00  -7.9386810580472602e+00  -7.9349018396365141e+00  -7.9322540473312975e+00  -7.9308028852108894e+00  -7.9305459775109739e+00  -8.0295686347282089e+00  -8.0293068714615945e+00  -8.0277222580477048e+00  -8.0248180070323354e+00  -8.0206723699964702e+00  -8.0154009037786604e+00  -8.0091473173145857e+00  -8.0020793110662751e+00  -7.9943846219082326e+00  -7.9862664663916956e+00  -7.9779384456164211e+00  -7.9696191101848841e+00  -7.9615263736762252e+00  -7.9538719430302356e+00  -7.9468559285514218e+00  -7.9406618002663514e+00  -7.9354518387928987e+00  -7.9313630558852415e+00  -7.9285026932131784e+00  -7.9269385388014175e+00  -7.9266608471092388e+00  -8.0344395715439187e+00  -8.0341575140050470e+00  -8.0324331573048955e+00  -8.0292657982239639e+00  -8.0247381967702172e+00  -8.0189759464659041e+00  -8.0121366482245548e+00  -8.0044045396270000e+00  -7.9959857221389026e+00  -7.9871030254802839e+00  -7.9779904426965382e+00  -7.9688872663667292e+00  -7.9600320839783434e+00  -7.9516567853289706e+00  -7.9439807310270592e+00  -7.9372052270103879e+00  -7.9315084087147341e+00  -7.9270404206076321e+00  -7.9239178365010741e+00  -7.9222122310221277e+00  -7.9219083076344035e+00  -8.0402096104857037e+00  -8.0399016380252792e+00  -8.0380079131313202e+00  -8.0345254171236711e+00  -8.0295434144982778e+00  -8.0231994811184446e+00  -8.0156673322130292e+00  -8.0071504225147176e+00  -7.9978763177891388e+00  -7.9880908579495262e+00  -7.9780520000408153e+00  -7.9680234257883500e+00  -7.9582680351318036e+00  -7.9490414488052465e+00  -7.9405856422840948e+00  -7.9331228292815545e+00  -7.9268496685196963e+00  -7.9219316411857479e+00  -7.9184964692749942e+00  -7.9166211598409237e+00  -7.9162860628981910e+00  -8.0468920642261050e+00  -8.0465526874477096e+00  -8.0444598335019180e+00  -8.0406092287843531e+00  -8.0350987453372191e+00  -8.0280802842951537e+00  -8.0197462492695184e+00  -8.0103221768024842e+00  -8.0000602366978661e+00  -7.9892326238458242e+00  -7.9781247291288127e+00  -7.9670281493815764e+00  -7.9562336208589972e+00  -7.9460239590385271e+00  -7.9366670896846054e+00  -7.9284092600650409e+00  -7.9214684870952743e+00  -7.9160280816884345e+00  -7.9122290669247679e+00  -7.9101556548559575e+00  -7.9097845770548787e+00  -8.0545045713009156e+00  -8.0541282668914995e+00  -8.0518060360681911e+00  -8.0475331466488402e+00  -8.0414182390193520e+00  -8.0336301614361147e+00  -8.0243828883743085e+00  -8.0139271205135998e+00  -8.0025428632265783e+00  -7.9905319922616531e+00  -7.9782107071798016e+00  -7.9659019153031618e+00  -7.9539275882197282e+00  -7.9426011198945776e+00  -7.9322197199969695e+00  -7.9230568949896441e+00  -7.9153550611605219e+00  -7.9093181331081892e+00  -7.9051028486743471e+00  -7.9028024729003530e+00  -7.9023906025773192e+00  -8.0630654794486443e+00  -8.0626465840372230e+00  -8.0600639639009053e+00  -8.0553131529551845e+00  -8.0485158469241629e+00  -8.0398607364682722e+00  -8.0295865495800509e+00  -8.0179724579630349e+00  -8.0053296316502163e+00  -7.9919929207129083e+00  -7.9783125761310476e+00  -7.9646460285867571e+00  -7.9513497079842512e+00  -7.9387708555681664e+00  -7.9272392876191757e+00  -7.9170591104325716e+00  -7.9085004126475766e+00  -7.9017907855874592e+00  -7.8971053690483952e+00  -7.8945484605834579e+00  -7.8940909170356681e+00  -8.0725897128446018e+00  -8.0721223470162524e+00  -8.0692473580465176e+00  -8.0639613471537732e+00  -8.0564015997961551e+00  -8.0467798909105568e+00  -8.0353632245221043e+00  -8.0224627859106050e+00  -8.0084243137354765e+00  -7.9936188326797168e+00  -7.9784336619244609e+00  -7.9632636738491342e+00  -7.9485026941647821e+00  -7.9345348790968568e+00  -7.9217259155441102e+00  -7.9104139609053004e+00  -7.9009003144521497e+00  -7.8934396768722381e+00  -7.8882286328848448e+00  -7.8853847336270722e+00  -7.8848765337244897e+00  -8.0830839348172496e+00  -8.0825619429677165e+00  -8.0793614917601282e+00  -8.0734812700081271e+00  -8.0650771012747438e+00  -8.0543875739219590e+00  -8.0417119209149792e+00  -8.0273971453912623e+00  -8.0118269885058293e+00  -7.9954116444584171e+00  -7.9785781275267338e+00  -7.9617611852906043e+00  -7.9453945053142796e+00  -7.9299018742411507e+00  -7.9156879628602166e+00  -7.9031285220061767e+00  -7.8925599176258121e+00  -7.8842678632866461e+00  -7.8784739357590388e+00  -7.8753115605955539e+00  -7.8747475999643619e+00  -8.0945407940731435e+00  -8.0939576899065013e+00  -8.0903974454753200e+00  -8.0838622469768584e+00  -8.0745300503191100e+00  -8.0626706923720022e+00  -8.0486201674507321e+00  -8.0327654076138817e+00  -8.0155315500569984e+00  -7.9973705728590057e+00  -7.9787511698442009e+00  -7.9601496214924765e+00  -7.9420411868879963e+00  -7.9248914113096802e+00  -7.9091467642142135e+00  -7.8952241865258248e+00  -7.8834993631598955e+00  -7.8742935694949789e+00  -7.8678576544513898e+00  -7.8643441630518360e+00  -7.8637192002044518e+00  -8.1069320157124540e+00  -8.1062809223136405e+00  -8.1023251646188896e+00  -8.0950724598795052e+00  -8.0847274726650618e+00  -8.0715967553019450e+00  -8.0560583988379602e+00  -8.0385437478122572e+00  -8.0195225824443366e+00  -7.9994906403777666e+00  -7.9789592700243164e+00  -7.9584467465393320e+00  -7.9384704413100744e+00  -7.9195388547083532e+00  -7.9021425484233347e+00  -7.8867432422116446e+00  -7.8737606989417399e+00  -7.8635572084944174e+00  -7.8564182459717067e+00  -7.8525196720619563e+00  -7.8518283024568758e+00  -8.1202000664788390e+00  -8.1194736352063508e+00  -8.1150849952237802e+00  -8.1070503996180712e+00  -8.0956072819949192e+00  -8.0811058904174526e+00  -8.0639728717773078e+00  -8.0446889231220045e+00  -8.0237714053662614e+00  -8.0017607817335286e+00  -7.9792105063890020e+00  -7.9566795319490984e+00  -7.9347261397381068e+00  -7.9139015620286681e+00  -7.8947418979510724e+00  -7.8777571215464075e+00  -7.8634164847370283e+00  -7.8521300195498105e+00  -7.8442247596582657e+00  -7.8399055162445714e+00  -7.8391421180961904e+00  -8.1342480832594433e+00  -8.1334383664043628e+00  -8.1285773294481114e+00  -8.1196942729705643e+00  -8.1070677067588033e+00  -8.0911007749422250e+00  -8.0722767064392666e+00  -8.0511310352929506e+00  -8.0282310757682982e+00  -8.0041614474806249e+00  -7.9795149377560097e+00  -7.9548873003408520e+00  -7.9308740095666304e+00  -7.9080667148076760e+00  -7.8870471744529134e+00  -7.8683767960722744e+00  -7.8525805570326366e+00  -7.8401247529689702e+00  -7.8313872305051193e+00  -7.8266095639207798e+00  -7.8257681884748198e+00  -8.1489276976048615e+00  -8.1480259333550968e+00  -8.1426499027265358e+00  -8.1328488228580476e+00  -8.1189540050378710e+00  -8.1014339352805997e+00  -8.0808385987619271e+00  -8.0577644442569447e+00  -8.0328301341830386e+00  -8.0066616048726811e+00  -7.9798850599895763e+00  -7.9531256198407911e+00  -7.9270087267085394e+00  -7.9021611419651956e+00  -7.8792083962819968e+00  -7.8587658880091240e+00  -7.8414215480543961e+00  -7.8277089486862899e+00  -7.8180694153377805e+00  -7.8127924108967335e+00  -7.8118665753862775e+00  -8.1640243022014847e+00  -8.1630205417299955e+00  -8.1570821430603910e+00  -8.1462888530015256e+00  -8.1310417408072500e+00  -8.1118917832475130e+00  -8.0894687373506411e+00  -8.0644365415372601e+00  -8.0374649423052063e+00  -8.0092150697413249e+00  -7.9803363267737799e+00  -7.9514710053168054e+00  -7.9232625763848494e+00  -7.8963634612586890e+00  -7.8714380849674734e+00  -7.8491571825473434e+00  -7.8301799214676429e+00  -7.8151215344747005e+00  -7.8045044810155444e+00  -7.7986823151748217e+00  -7.7976646338482176e+00  -8.1792391582568609e+00  -8.1781216129135306e+00  -8.1715657349157542e+00  -8.1596984860336281e+00  -8.1430157033138375e+00  -8.1221747041951087e+00  -8.0979015475552760e+00  -8.0709342639959285e+00  -8.0419906275742328e+00  -8.0117561952853080e+00  -7.9808877011278181e+00  -7.9500263489265732e+00  -7.9198156561332551e+00  -7.8909187001863614e+00  -7.8640295426482822e+00  -7.8398733231740509e+00  -7.8191895192366072e+00  -7.8026937537858698e+00  -7.7910145029996594e+00  -7.7845934683136040e+00  -7.7834750201921210e+00  -8.1941674774900122e+00  -8.1929213651784085e+00  -8.1856801337026699e+00  -8.1726447609738901e+00  -8.1544433184425724e+00  -8.1318725714985902e+00  -8.1057751974610301e+00  -8.0769686552321129e+00  -8.0462110282760531e+00  -8.0141951422058071e+00  -7.9815621584077956e+00  -7.9489267237026340e+00  -7.9169071699574678e+00  -7.8861551338993907e+00  -7.8573787660157564e+00  -7.8313525021399437e+00  -7.8089049311744558e+00  -7.7908759043200861e+00  -7.7780350772460345e+00  -7.7709486352424815e+00  -7.7697179055266696e+00  -8.2082711145920282e+00  -8.2068765808307997e+00  -8.1988609668960954e+00  -8.1845434782213449e+00  -8.1647411666842267e+00  -8.1404354085615918e+00  -8.1126085694043564e+00  -8.0821586772064951e+00  -8.0498687675443126e+00  -8.0164133293078006e+00  -7.9823869830881327e+00  -7.9483446859890661e+00  -7.9148465291167120e+00  -7.8825021634231884e+00  -7.8520095159108827e+00  -7.8241797761591547e+00  -7.7999364094167296e+00  -7.7802721733047093e+00  -7.7661471773272037e+00  -7.7583078411365278e+00  -7.7569489631354562e+00  -8.2208435491699365e+00  -8.2192717778706914e+00  -8.2103577062986091e+00  -8.1946140630753792e+00  -8.1731331563527032e+00  -8.1471399458847547e+00  -8.1177780503549233e+00  -8.0860171664606639e+00  -8.0526378738621194e+00  -8.0182602986215805e+00  -7.9833935802340577e+00  -7.9484933326236265e+00  -7.9140214897780021e+00  -7.8805062737232445e+00  -7.8485995018162571e+00  -7.8191238995581180e+00  -7.7930944886593423e+00  -7.7716872484690231e+00  -7.7561199931215619e+00  -7.7474060506397198e+00  -7.7458958647684106e+00  -8.2309629632984684e+00  -8.2291684335317399e+00  -8.2191739159896482e+00  -8.2018184972473307e+00  -8.1785995651138990e+00  -8.1510553765426010e+00  -8.1204997472059048e+00  -8.0879447497073667e+00  -8.0541233981605824e+00  -8.0195541846244751e+00  -7.9846163613474941e+00  -7.9496240705244441e+00  -7.9148981579092688e+00  -7.8808388948852057e+00  -7.8480023694579213e+00  -7.8171774506362182e+00  -7.7894465947218912e+00  -7.7661907643974031e+00  -7.7489717081974057e+00  -7.7392053676821044e+00  -7.7375083785875773e+00  -8.2374254860041596e+00  -8.2353290877386200e+00  -8.2239772245161316e+00  -8.2047773532210648e+00  -8.1798192151375577e+00  -8.1510174508127378e+00  -8.1198286743494243e+00  -8.0872420623011010e+00  -8.0538752448134456e+00  -8.0200891839485831e+00  -7.9860901042763253e+00  -7.9520144421838665e+00  -7.9180043039634214e+00  -7.8842846838892449e+00  -7.8512537040551207e+00  -7.8195925736558838e+00  -7.7903864403649186e+00  -7.7652094662345190e+00  -7.7460618910080488e+00  -7.7349728571648537e+00  -7.7330321765601742e+00  -8.2386430156468915e+00  -8.2360908674983939e+00  -8.2229542629847199e+00  -8.2016560961208818e+00  -8.1751169532034371e+00  -8.1456324384069010e+00  -8.1146962786452459e+00  -8.0831565329194568e+00  -8.0514262813078243e+00  -8.0196544565792589e+00  -7.9878451315971706e+00  -7.9559400185937790e+00  -7.9238837234737520e+00  -7.8916911559151606e+00  -7.8595373382959606e+00  -7.8278913432679298e+00  -7.7977094875391035e+00  -7.7706618252213575e+00  -7.7492437306638147e+00  -7.7364081578854895e+00  -7.7341279583009674e+00  -8.2324728367980065e+00  -8.2291249732158782e+00  -8.2135660762397453e+00  -8.1900276520291069e+00  -8.1624561206732160e+00  -8.1333562407171804e+00  -8.1040212023556766e+00  -8.0749851211266996e+00  -8.0463655879899125e+00  -8.0180685960299733e+00  -7.9898998126946434e+00  -7.9616247509619420e+00  -7.9330077901676663e+00  -7.9038527739301996e+00  -7.8740692601214652e+00  -7.8437994992842555e+00  -7.8136598185550454e+00  -7.7851484853760855e+00  -7.7611366405288633e+00  -7.7458794444926173e+00  -7.7430870075391063e+00  -8.2158928828455426e+00  -8.2109141823886969e+00  -8.1921464181423485e+00  -8.1667791365992297e+00  -8.1395818758894176e+00  -8.1127314338608159e+00  -8.0869393037212181e+00  -8.0622518461956183e+00  -8.0384516916408106e+00  -8.0152297826851342e+00  -7.9922499764559145e+00  -7.9691682858723834e+00  -7.9456359099202203e+00  -7.9213023668650004e+00  -7.8958359114356931e+00  -7.8689946045058292e+00  -7.8408253355642739e+00  -7.8121601804523557e+00  -7.7856427241829653e+00  -7.7669318724655838e+00  -7.7632825252150042e+00  -8.1841891158603080e+00  -8.1755240134908842e+00  -8.1533919880850991e+00  -8.1283410372427713e+00  -8.1045476443686972e+00  -8.0828977091314940e+00  -8.0631845428877984e+00  -8.0449530401942848e+00  -8.0277491460577561e+00  -8.0111693554155163e+00  -7.9948523598090588e+00  -7.9784564819967736e+00  -7.9616340957804317e+00  -7.9440048392070715e+00  -7.9251290226332465e+00  -7.9044916704126189e+00  -7.8815439918658825e+00  -7.8559774509943914e+00  -7.8288242835622484e+00  -7.8056234619794935e+00  -7.8002999356177432e+00  -8.1278423636279395e+00  -8.1118457946830169e+00  -8.0905289882062323e+00  -8.0720440338003918e+00  -8.0569791027471922e+00  -8.0444240767633683e+00  -8.0335514699117070e+00  -8.0237826088017652e+00  -8.0147174644101078e+00  -8.0060622988847836e+00  -7.9975804340969789e+00  -7.9890586218783692e+00  -7.9802800593368630e+00  -7.9709964486414941e+00  -7.9608907359008745e+00  -7.9495181294657771e+00  -7.9362068903440024e+00  -7.9199156219733000e+00  -7.8992550803317156e+00  -7.8745543429303106e+00  -7.8656794700726973e+00  -8.0000000000000000e+00  -8.0000000000000000e+00  -8.0000000000000000e+00  -8.0000000000000000e+00  -8.0000000000000000e+00  -8.0000000000000000e+00  -8.0000000000000000e+00  -8.0000000000000000e+00  -8.0000000000000000e+00  -8.0000000000000000e+00  -8.0000000000000000e+00  -8.0000000000000000e+00  -8.0000000000000000e+00  -8.0000000000000000e+00  -8.0000000000000000e+00  -8.0000000000000000e+00  -8.0000000000000000e+00  -8.0000000000000000e+00  -8.0000000000000000e+00  -8.0000000000000000e+00  -8.0000000000000000e+00  </DataArray> 
</PointData> 
</Piece>
</UnstructuredGrid>
</VTKFile>