<?xml version="1.0"?>
<VTKFile type="UnstructuredGrid"  version="0.1"  >
<UnstructuredGrid>
<Piece  NumberOfPoints="651" NumberOfCells="1200">
<Points>
<DataArray  type="Float64"  NumberOfComponents="3"  format="ascii">0 0 0  50000 0 0  100000 0 0  150000 0 0  200000 0 0  250000 0 0  300000 0 0  350000 0 0  400000 0 0  450000 0 0  500000 0 0  550000 0 0  600000 0 0  650000 0 0  700000 0 0  750000 0 0  800000 0 0  850000 0 0  900000 0 0  950000 0 0  1000000 0 0  0 50000 0  50000 50000 0  100000 50000 0  150000 50000 0  200000 50000 0  250000 50000 0  300000 50000 0  350000 50000 0  400000 50000 0  450000 50000 0  500000 50000 0  550000 50000 0  600000 50000 0  650000 50000 0  700000 50000 0  750000 50000 0  800000 50000 0  850000 50000 0  900000 50000 0  950000 50000 0  1000000 50000 0  0 100000 0  50000 100000 0  100000 100000 0  150000 100000 0  200000 100000 0  250000 100000 0  300000 100000 0  350000 100000 0  400000 100000 0  450000 100000 0  500000 100000 0  550000 100000 0  600000 100000 0  650000 100000 0  700000 100000 0  750000 100000 0  800000 100000 0  850000 100000 0  900000 100000 0  950000 100000 0  1000000 100000 0  0 150000 0  50000 150000 0  100000 150000 0  150000 150000 0  200000 150000 0  250000 150000 0  300000 150000 0  350000 150000 0  400000 150000 0  450000 150000 0  500000 150000 0  550000 150000 0  600000 150000 0  650000 150000 0  700000 150000 0  750000 150000 0  800000 150000 0  850000 150000 0  900000 150000 0  950000 150000 0  1000000 150000 0  0 200000 0  50000 200000 0  100000 200000 0  150000 200000 0  200000 200000 0  250000 200000 0  300000 200000 0  350000 200000 0  400000 200000 0  450000 200000 0  500000 200000 0  550000 200000 0  600000 200000 0  650000 200000 0  700000 200000 0  750000 200000 0  800000 200000 0  850000 200000 0  900000 200000 0  950000 200000 0  1000000 200000 0  0 250000 0  50000 250000 0  100000 250000 0  150000 250000 0  200000 250000 0  250000 250000 0  300000 250000 0  350000 250000 0  400000 250000 0  450000 250000 0  500000 250000 0  550000 250000 0  600000 250000 0  650000 250000 0  700000 250000 0  750000 250000 0  800000 250000 0  850000 250000 0  900000 250000 0  950000 250000 0  1000000 250000 0  0 300000 0  50000 300000 0  100000 300000 0  150000 300000 0  200000 300000 0  250000 300000 0  300000 300000 0  350000 300000 0  400000 300000 0  450000 300000 0  500000 300000 0  550000 300000 0  600000 300000 0  650000 300000 0  700000 300000 0  750000 300000 0  800000 300000 0  850000 300000 0  900000 300000 0  950000 300000 0  1000000 300000 0  0 350000 0  50000 350000 0  100000 350000 0  150000 350000 0  200000 350000 0  250000 350000 0  300000 350000 0  350000 350000 0  400000 350000 0  450000 350000 0  500000 350000 0  550000 350000 0  600000 350000 0  650000 350000 0  700000 350000 0  750000 350000 0  800000 350000 0  850000 350000 0  900000 350000 0  950000 350000 0  1000000 350000 0  0 400000 0  50000 400000 0  100000 400000 0  150000 400000 0  200000 400000 0  250000 400000 0  300000 400000 0  350000 400000 0  400000 400000 0  450000 400000 0  500000 400000 0  550000 400000 0  600000 400000 0  650000 400000 0  700000 400000 0  750000 400000 0  800000 400000 0  850000 400000 0  900000 400000 0  950000 400000 0  1000000 400000 0  0 450000 0  50000 450000 0  100000 450000 0  150000 450000 0  200000 450000 0  250000 450000 0  300000 450000 0  350000 450000 0  400000 450000 0  450000 450000 0  500000 450000 0  550000 450000 0  600000 450000 0  650000 450000 0  700000 450000 0  750000 450000 0  800000 450000 0  850000 450000 0  900000 450000 0  950000 450000 0  1000000 450000 0  0 500000 0  50000 500000 0  100000 500000 0  150000 500000 0  200000 500000 0  250000 500000 0  300000 500000 0  350000 500000 0  400000 500000 0  450000 500000 0  500000 500000 0  550000 500000 0  600000 500000 0  650000 500000 0  700000 500000 0  750000 500000 0  800000 500000 0  850000 500000 0  900000 500000 0  950000 500000 0  1000000 500000 0  0 550000 0  50000 550000 0  100000 550000 0  150000 550000 0  200000 550000 0  250000 550000 0  300000 550000 0  350000 550000 0  400000 550000 0  450000 550000 0  500000 550000 0  550000 550000 0  600000 550000 0  650000 550000 0  700000 550000 0  750000 550000 0  800000 550000 0  850000 550000 0  900000 550000 0  950000 550000 0  1000000 550000 0  0 600000 0  50000 600000 0  100000 600000 0  150000 600000 0  200000 600000 0  250000 600000 0  300000 600000 0  350000 600000 0  400000 600000 0  450000 600000 0  500000 600000 0  550000 600000 0  600000 600000 0  650000 600000 0  700000 600000 0  750000 600000 0  800000 600000 0  850000 600000 0  900000 600000 0  950000 600000 0  1000000 600000 0  0 650000 0  50000 650000 0  100000 650000 0  150000 650000 0  200000 650000 0  250000 650000 0  300000 650000 0  350000 650000 0  400000 650000 0  450000 650000 0  500000 650000 0  550000 650000 0  600000 650000 0  650000 650000 0  700000 650000 0  750000 650000 0  800000 650000 0  850000 650000 0  900000 650000 0  950000 650000 0  1000000 650000 0  0 700000 0  50000 700000 0  100000 700000 0  150000 700000 0  200000 700000 0  250000 700000 0  300000 700000 0  350000 700000 0  400000 700000 0  450000 700000 0  500000 700000 0  550000 700000 0  600000 700000 0  650000 700000 0  700000 700000 0  750000 700000 0  800000 700000 0  850000 700000 0  900000 700000 0  950000 700000 0  1000000 700000 0  0 750000 0  50000 750000 0  100000 750000 0  150000 750000 0  200000 750000 0  250000 750000 0  300000 750000 0  350000 750000 0  400000 750000 0  450000 750000 0  500000 750000 0  550000 750000 0  600000 750000 0  650000 750000 0  700000 750000 0  750000 750000 0  800000 750000 0  850000 750000 0  900000 750000 0  950000 750000 0  1000000 750000 0  0 800000 0  50000 800000 0  100000 800000 0  150000 800000 0  200000 800000 0  250000 800000 0  300000 800000 0  350000 800000 0  400000 800000 0  450000 800000 0  500000 800000 0  550000 800000 0  600000 800000 0  650000 800000 0  700000 800000 0  750000 800000 0  800000 800000 0  850000 800000 0  900000 800000 0  950000 800000 0  1000000 800000 0  0 850000 0  50000 850000 0  100000 850000 0  150000 850000 0  200000 850000 0  250000 850000 0  300000 850000 0  350000 850000 0  400000 850000 0  450000 850000 0  500000 850000 0  550000 850000 0  600000 850000 0  650000 850000 0  700000 850000 0  750000 850000 0  800000 850000 0  850000 850000 0  900000 850000 0  950000 850000 0  1000000 850000 0  0 900000 0  50000 900000 0  100000 900000 0  150000 900000 0  200000 900000 0  250000 900000 0  300000 900000 0  350000 900000 0  400000 900000 0  450000 900000 0  500000 900000 0  550000 900000 0  600000 900000 0  650000 900000 0  700000 900000 0  750000 900000 0  800000 900000 0  850000 900000 0  900000 900000 0  950000 900000 0  1000000 900000 0  0 950000 0  50000 950000 0  100000 950000 0  150000 950000 0  200000 950000 0  250000 950000 0  300000 950000 0  350000 950000 0  400000 950000 0  450000 950000 0  500000 950000 0  550000 950000 0  600000 950000 0  650000 950000 0  700000 950000 0  750000 950000 0  800000 950000 0  850000 950000 0  900000 950000 0  950000 950000 0  1000000 950000 0  0 1000000 0  50000 1000000 0  100000 1000000 0  150000 1000000 0  200000 1000000 0  250000 1000000 0  300000 1000000 0  350000 1000000 0  400000 1000000 0  450000 1000000 0  500000 1000000 0  550000 1000000 0  600000 1000000 0  650000 1000000 0  700000 1000000 0  750000 1000000 0  800000 1000000 0  850000 1000000 0  900000 1000000 0  950000 1000000 0  1000000 1000000 0  0 1050000 0  50000 1050000 0  100000 1050000 0  150000 1050000 0  200000 1050000 0  250000 1050000 0  300000 1050000 0  350000 1050000 0  400000 1050000 0  450000 1050000 0  500000 1050000 0  550000 1050000 0  600000 1050000 0  650000 1050000 0  700000 1050000 0  750000 1050000 0  800000 1050000 0  850000 1050000 0  900000 1050000 0  950000 1050000 0  1000000 1050000 0  0 1100000 0  50000 1100000 0  100000 1100000 0  150000 1100000 0  200000 1100000 0  250000 1100000 0  300000 1100000 0  350000 1100000 0  400000 1100000 0  450000 1100000 0  500000 1100000 0  550000 1100000 0  600000 1100000 0  650000 1100000 0  700000 1100000 0  750000 1100000 0  800000 1100000 0  850000 1100000 0  900000 1100000 0  950000 1100000 0  1000000 1100000 0  0 1150000 0  50000 1150000 0  100000 1150000 0  150000 1150000 0  200000 1150000 0  250000 1150000 0  300000 1150000 0  350000 1150000 0  400000 1150000 0  450000 1150000 0  500000 1150000 0  550000 1150000 0  600000 1150000 0  650000 1150000 0  700000 1150000 0  750000 1150000 0  800000 1150000 0  850000 1150000 0  900000 1150000 0  950000 1150000 0  1000000 1150000 0  0 1200000 0  50000 1200000 0  100000 1200000 0  150000 1200000 0  200000 1200000 0  250000 1200000 0  300000 1200000 0  350000 1200000 0  400000 1200000 0  450000 1200000 0  500000 1200000 0  550000 1200000 0  600000 1200000 0  650000 1200000 0  700000 1200000 0  750000 1200000 0  800000 1200000 0  850000 1200000 0  900000 1200000 0  950000 1200000 0  1000000 1200000 0  0 1250000 0  50000 1250000 0  100000 1250000 0  150000 1250000 0  200000 1250000 0  250000 1250000 0  300000 1250000 0  350000 1250000 0  400000 1250000 0  450000 1250000 0  500000 1250000 0  550000 1250000 0  600000 1250000 0  650000 1250000 0  700000 1250000 0  750000 1250000 0  800000 1250000 0  850000 1250000 0  900000 1250000 0  950000 1250000 0  1000000 1250000 0  0 1300000 0  50000 1300000 0  100000 1300000 0  150000 1300000 0  200000 1300000 0  250000 1300000 0  300000 1300000 0  350000 1300000 0  400000 1300000 0  450000 1300000 0  500000 1300000 0  550000 1300000 0  600000 1300000 0  650000 1300000 0  700000 1300000 0  750000 1300000 0  800000 1300000 0  850000 1300000 0  900000 1300000 0  950000 1300000 0  1000000 1300000 0  0 1350000 0  50000 1350000 0  100000 1350000 0  150000 1350000 0  200000 1350000 0  250000 1350000 0  300000 1350000 0  350000 1350000 0  400000 1350000 0  450000 1350000 0  500000 1350000 0  550000 1350000 0  600000 1350000 0  650000 1350000 0  700000 135
[...]
<PointData  Scalars="f_1511"> 
<DataArray  type="Float64"  Name="f_1511"  format="ascii">-8.0244623872807157e+00  -8.0241200273692250e+00  -8.0224366691572726e+00  -8.0194069802646641e+00  -8.0151090801080720e+00  -8.0096570204624253e+00  -8.0031954757731700e+00  -7.9958955966827077e+00  -7.9879503973973414e+00  -7.9795695886470881e+00  -7.9709739851258270e+00  -7.9623896387671840e+00  -7.9540418508484123e+00  -7.9461492177412181e+00  -7.9389178709313315e+00  -7.9325360935777258e+00  -7.9271695781839959e+00  -7.9229578476086910e+00  -7.9200126666593391e+00  -7.9184125272514105e+00  -7.9180666220129190e+00  -8.0247907106034990e+00  -8.0244558477293690e+00  -8.0227483743811181e+00  -8.0196984754962326e+00  -8.0153780174052027e+00  -8.0098989437514660e+00  -8.0034054249881859e+00  -7.9960688904269528e+00  -7.9880830324723142e+00  -7.9796584643363468e+00  -7.9710170366528281e+00  -7.9623859115423263e+00  -7.9539915266005359e+00  -7.9460535932501672e+00  -7.9387792787684859e+00  -7.9323577222955954e+00  -7.9269550152458397e+00  -7.9227096191352313e+00  -7.9197273354769386e+00  -7.9180710227161315e+00  -7.9177250181451582e+00  -8.0263747478240131e+00  -8.0260627470172192e+00  -8.0243157635058893e+00  -8.0211737110028274e+00  -8.0167226226503381e+00  -8.0110801390912414e+00  -8.0043947746710149e+00  -7.9968425718311806e+00  -7.9886224525826552e+00  -7.9799508149250489e+00  -7.9710556801469341e+00  -7.9621705789828248e+00  -7.9535283284860618e+00  -7.9453548469318047e+00  -7.9378631582153449e+00  -7.9312477467606746e+00  -7.9256794390129279e+00  -7.9213009892591497e+00  -7.9182233742006609e+00  -7.9165211848066512e+00  -7.9162105338507462e+00  -8.0291949908314511e+00  -8.0288860996631488e+00  -8.0270731816277916e+00  -8.0237814944437673e+00  -8.0191058598542266e+00  -8.0131747272130358e+00  -8.0061464706050103e+00  -7.9982069967708629e+00  -7.9895656096564389e+00  -7.9804496965468683e+00  -7.9710987453969864e+00  -7.9617580042595701e+00  -7.9526719976962932e+00  -7.9440780804581514e+00  -7.9362002076882145e+00  -7.9292431248649446e+00  -7.9233872292608867e+00  -7.9187843811056693e+00  -7.9155545296393006e+00  -7.9137795280138441e+00  -7.9134682913327428e+00  -8.0332080567950843e+00  -8.0328900016823450e+00  -8.0309734423281895e+00  -8.0274709147806238e+00  -8.0224809987798054e+00  -8.0161431954624636e+00  -8.0086292269006787e+00  -8.0001394199894200e+00  -7.9908984021533929e+00  -7.9811496756915528e+00  -7.9711494224576285e+00  -7.9611598733235489e+00  -7.9514424961693226e+00  -7.9422512143407999e+00  -7.9338258614216173e+00  -7.9263860980994298e+00  -7.9201260388361376e+00  -7.9152097304402416e+00  -7.9117667400906777e+00  -7.9098823965845524e+00  -7.9095535098996983e+00  -8.0383893905980344e+00  -8.0380529439106443e+00  -8.0359935604106791e+00  -8.0322153160867629e+00  -8.0268205942357760e+00  -8.0199603168389739e+00  -8.0118218933740710e+00  -8.0026238001333407e+00  -7.9926104577951032e+00  -7.9820463318558401e+00  -7.9712093337036123e+00  -7.9603837801497619e+00  -7.9498531563671309e+00  -7.9398929007807668e+00  -7.9307634228736177e+00  -7.9227035699061057e+00  -7.9159247333585956e+00  -7.9106055559707880e+00  -7.9068860532233201e+00  -7.9048548555285656e+00  -7.9044989862812383e+00  -8.0447318926981328e+00  -8.0443691811386966e+00  -8.0421281229077533e+00  -8.0380075876377397e+00  -8.0321157887206489e+00  -8.0246167173727940e+00  -8.0157158896140484e+00  -8.0056533331909812e+00  -7.9946973927623803e+00  -7.9831380750638932e+00  -7.9712798397976901e+00  -7.9594340036357440e+00  -7.9479109618275778e+00  -7.9370124252860634e+00  -7.9270238659474135e+00  -7.9182073573530296e+00  -7.9107949420868975e+00  -7.9049823683528304e+00  -7.9009217937845930e+00  -7.8987067294911117e+00  -7.8983168299965225e+00  -8.0522423409817474e+00  -8.0518460569181372e+00  -8.0493847809050134e+00  -8.0448542959824394e+00  -8.0383712665573483e+00  -8.0301152872389689e+00  -8.0203128640365247e+00  -8.0092290524674752e+00  -7.9971601437150825e+00  -7.9844260955556834e+00  -7.9713625536506365e+00  -7.9583125698561776e+00  -7.9456181735672278e+00  -7.9336119546238315e+00  -7.9226088152708058e+00  -7.9128980427335032e+00  -7.9047357943001373e+00  -7.8983377861802664e+00  -7.8938706844411142e+00  -7.8914350422069743e+00  -7.8910047381667221e+00  -8.0609374154011046e+00  -8.0605004292894620e+00  -8.0577802460068035e+00  -8.0527709641923444e+00  -8.0456004570593027e+00  -8.0364669781012648e+00  -8.0256213683498494e+00  -8.0133574282464561e+00  -8.0000034679756382e+00  -7.9859137345557887e+00  -7.9714595600538267e+00  -7.9570203048211745e+00  -7.9429742030864849e+00  -7.9296892165961914e+00  -7.9175140047101866e+00  -7.9067691239708617e+00  -7.8977385265048232e+00  -7.8906611372800608e+00  -7.8857209383037778e+00  -7.8830278494403352e+00  -7.8825509518427097e+00  -8.0708394330137931e+00  -8.0703545773862562e+00  -8.0673361928184679e+00  -8.0617777423000856e+00  -8.0538211361992094e+00  -8.0436867054431858e+00  -8.0316533737548497e+00  -8.0180476871779636e+00  -8.0032341655342218e+00  -7.9876056562174060e+00  -7.9715735514199668e+00  -7.9555579200471893e+00  -7.9399776061459653e+00  -7.9252403292465630e+00  -7.9117328279638794e+00  -7.8998111123276153e+00  -7.8897908775400740e+00  -7.8819378641369031e+00  -7.8764565166913307e+00  -7.8734685410339917e+00  -7.8729388633072181e+00  -8.0819716328416007e+00  -8.0814315645385211e+00  -8.0780747182140438e+00  -8.0718948704644014e+00  -8.0630509567751130e+00  -8.0517891579239080e+00  -8.0384206179796980e+00  -8.0233089208561363e+00  -8.0068591123575850e+00  -7.9895069073091829e+00  -7.9717079575321907e+00  -7.9539272005709529e+00  -7.9366282637684629e+00  -7.9202628585176003e+00  -7.9052601087979362e+00  -7.8920158105950184e+00  -7.8808816511503963e+00  -7.8721541816657652e+00  -7.8660618099936244e+00  -7.8627406143756442e+00  -7.8621518870212821e+00  -8.0943527955935100e+00  -8.0937498983507581e+00  -8.0900131004129623e+00  -8.0831375364711224e+00  -8.0733024728773515e+00  -8.0607841608242445e+00  -8.0459305427710923e+00  -8.0291468379570272e+00  -8.0108830304495307e+00  -7.9916218466705935e+00  -7.9718671017903375e+00  -7.9521323770345944e+00  -7.9329298832921937e+00  -7.9147592945916454e+00  -7.8980963484846747e+00  -7.8833811019190803e+00  -7.8710058269057210e+00  -7.8613023465366210e+00  -7.8545269929860657e+00  -7.8508331139059919e+00  -7.8501789402878170e+00  -8.1079909536686134e+00  -8.1073172623984160e+00  -8.1031576043637674e+00  -8.0955097984724134e+00  -8.0845772825852880e+00  -8.0706712296259102e+00  -8.0541815158677625e+00  -8.0355599317573549e+00  -8.0153058490406028e+00  -7.9939528811543514e+00  -7.9720564017363067e+00  -7.9501817787512534e+00  -7.9288929923959541e+00  -7.9087411906642959e+00  -7.8902527555320976e+00  -7.8739165969322267e+00  -7.8601705759920026e+00  -7.8493868592293081e+00  -7.8418543171317490e+00  -7.8377469802998228e+00  -7.8370208116971938e+00  -8.1228759165657518e+00  -8.1221230501685540e+00  -8.1174960469462398e+00  -8.1089972398044310e+00  -8.0968589154894222e+00  -8.0814329348679248e+00  -8.0631569942310914e+00  -8.0425347876310500e+00  -8.0201194694607167e+00  -7.9964989191404134e+00  -7.9722826272429863e+00  -7.9480898817378502e+00  -7.9245386334902834e+00  -7.9022342513274184e+00  -7.8817574033011955e+00  -7.8636505136232522e+00  -7.8484025503591397e+00  -7.8364319319467857e+00  -7.8280656314428203e+00  -7.8235025844027559e+00  -7.8226976991621404e+00  -8.1389703024592439e+00  -8.1381293909372676e+00  -8.1329887878658571e+00  -8.1235579784568763e+00  -8.1101040497312145e+00  -8.0930266552104584e+00  -8.0728182383338076e+00  -8.0500402107068290e+00  -8.0253037115766013e+00  -7.9992534333906065e+00  -7.9725542288212932e+00  -7.9458798837658851e+00  -7.9199030011297005e+00  -7.8952847056584892e+00  -7.8726629147876492e+00  -7.8526382168239195e+00  -7.8357568615930262e+00  -7.8224906006054358e+00  -7.8132114671096229e+00  -7.8081487569566201e+00  -7.8072582268345325e+00  -8.1561987257570134e+00  -8.1552603113199584e+00  -8.1495577512090005e+00  -8.1391115811890167e+00  -8.1242315666206739e+00  -8.1053742225947634e+00  -8.0830951243116722e+00  -8.0580198051930640e+00  -8.0308211870865076e+00  -8.0022020085743240e+00  -7.9728817481496632e+00  -7.9435869551522149e+00  -7.9150433003501792e+00  -7.8879673543228757e+00  -7.8630561441816358e+00  -7.8409729239869757e+00  -7.8223282462494250e+00  -7.8076559317896539e+00  -7.7973820805565000e+00  -7.7917736707018879e+00  -7.7907902908584390e+00  -8.1744347383990927e+00  -8.1733886181301525e+00  -8.1670730013643951e+00  -8.1555253290953100e+00  -8.1391088413000929e+00  -8.1183488660957899e+00  -8.0938745282542879e+00  -8.0663825914863470e+00  -8.0366108210802647e+00  -8.0053192382953764e+00  -7.9732783209630185e+00  -7.9412623222154579e+00  -7.9100451295899248e+00  -7.8803957319874307e+00  -7.8530704068573893e+00  -7.8287991902238021e+00  -7.8082650295505758e+00  -7.7920748806591540e+00  -7.7807209319440584e+00  -7.7745179926952934e+00  -7.7734341400680282e+00  -8.1934850500909260e+00  -8.1923200063420989e+00  -8.1853362800319491e+00  -8.1725971342742696e+00  -8.1545345209139874e+00  -8.1317587474346009e+00  -8.1049856934411597e+00  -8.0749912283748646e+00  -8.0425797483255224e+00  -8.0085648423373890e+00  -7.9737602759884432e+00  -7.9389783246272270e+00  -7.9050316850478568e+00  -7.8727348530772732e+00  -7.8429008878522062e+00  -7.8163299153299253e+00  -7.7937866580478143e+00  -7.7759655088040320e+00  -7.7634411972175679e+00  -7.7565908139849480e+00  -7.7553981800796103e+00  -8.2130704403998713e+00  -8.2117737676791887e+00  -8.2040607281052313e+00  -8.1900341889269139e+00  -8.1702168487432143e+00  -8.1453262691209538e+00  -8.1161819768933459e+00  -8.0836474638627305e+00  -8.0485933858856900e+00  -8.0118789185044097e+00  -7.9743478180925980e+00  -7.9368345189056821e+00  -7.9001749981610088e+00  -7.8652169621838093e+00  -7.8328238988961996e+00  -7.8038677587986047e+00  -7.7792057899031848e+00  -7.7596385029436714e+00  -7.7458461030643964e+00  -7.7382890060033800e+00  -7.7369781207101429e+00  -8.2328025852932889e+00  -8.2313592550536665e+00  -8.2228457076931232e+00  -8.2074260888202737e+00  -8.1857463446415313e+00  -8.1586622688885342e+00  -8.1271184875859799e+00  -8.0920746613069117e+00  -8.0544637036650002e+00  -8.0151763630005632e+00  -7.9750657517623500e+00  -7.9349647264178778e+00  -7.8957091706807399e+00  -7.8581604971198091e+00  -7.8232205821423397e+00  -7.7918319769285436e+00  -7.7649562322558552e+00  -7.7435243039518831e+00  -7.7283541972163556e+00  -7.7200208972852700e+00  -7.7185803129632182e+00  -8.2521556767333610e+00  -8.2505468533125352e+00  -8.2411450866062612e+00  -8.2242106245767435e+00  -8.2005613509169581e+00  -8.1712342919972674e+00  -8.1373255348686495e+00  -8.0998978022311157e+00  -8.0599362050123720e+00  -8.0183407508206361e+00  -7.9759441411259342e+00  -7.9335445617177136e+00  -7.8919450196616872e+00  -7.8519919216864924e+00  -7.8146053252930416e+00  -7.7807917343114177e+00  -7.7516284263660360e+00  -7.7282077668421900e+00  -7.7115312431607634e+00  -7.7023356076404914e+00  -7.7007505330968726e+00  -8.2704310680676940e+00  -8.2686314257287066e+00  -8.2582263104644689e+00  -8.2396295299734152e+00  -8.2139046505393516e+00  -8.1823285848323444e+00  -8.1461788050475405e+00  -8.1066225299592158e+00  -8.0646770834334092e+00  -8.0212184534902473e+00  -7.9770187000426729e+00  -7.9327983037189060e+00  -7.8892844617433902e+00  -7.8472688974777913e+00  -7.8076582611103653e+00  -7.7715067052779228e+00  -7.7400147140316538e+00  -7.7144733166739847e+00  -7.6961315035174884e+00  -7.6859602155632532e+00  -7.6842102476218361e+00  -8.2867119363975057e+00  -8.2846846323214187e+00  -8.2731155757911434e+00  -8.2526700031534546e+00  -8.2247692821835603e+00  -8.1910067883441897e+00  -8.1528693271982231e+00  -8.1116169947083723e+00  -8.0682636944881541e+00  -8.0236145946752995e+00  -7.9783305469004615e+00  -7.9330028414304881e+00  -7.8882310364597421e+00  -7.8447009471590459e+00  -7.8032591985831878e+00  -7.7649748228526132e+00  -7.7311671881135293e+00  -7.7033653731444751e+00  -7.6831532576269597e+00  -7.6718485770757141e+00  -7.6699039060734098e+00  -8.2998025234187232e+00  -8.2974891831567401e+00  -8.2845204239378436e+00  -8.2619855875558486e+00  -8.2318325448180651e+00  -8.1960616314405410e+00  -8.1563805129721150e+00  -8.1141040512001101e+00  -8.0701841188246863e+00  -8.0252936827846835e+00  -7.9799247476384583e+00  -7.9344847386400419e+00  -7.8893898504996987e+00  -7.8451595839946817e+00  -7.8025160854255482e+00  -7.7624842858852228e+00  -7.7264710894312065e+00  -7.6962719073791277e+00  -7.6739175776585506e+00  -7.6612489633862140e+00  -7.6590638668100004e+00  -8.3081416735504892e+00  -8.3054405455962659e+00  -8.2907130938713731e+00  -8.2657873956539696e+00  -8.2333811562597745e+00  -8.1959835063159741e+00  -8.1554872671529601e+00  -8.1131772356617873e+00  -8.0698551810803458e+00  -8.0259893235900002e+00  -7.9818468608144766e+00  -7.9376043642898662e+00  -7.8934458231512066e+00  -7.8496629889688112e+00  -7.8067726901079428e+00  -7.7656598561468755e+00  -7.7277347922691977e+00  -7.6950439610120496e+00  -7.6701881063362993e+00  -7.6558049115023081e+00  -7.6533060664295851e+00  -8.3096704665495924e+00  -8.3063830977415662e+00  -8.2893425358136330e+00  -8.2616968506271782e+00  -8.2272434031877388e+00  -8.1889658896027910e+00  -8.1488049039293742e+00  -8.1078616255650733e+00  -8.0666719792154815e+00  -8.0254287551895978e+00  -7.9841366253688379e+00  -7.9427193052575227e+00  -7.9011042975522958e+00  -7.8593104540179173e+00  -7.8175646943773280e+00  -7.7764761796931889e+00  -7.7372876709909768e+00  -7.7021702796176257e+00  -7.6743684802495018e+00  -7.6577206311668595e+00  -7.6547844601665114e+00  -8.3016115208041370e+00  -8.2972984301553101e+00  -8.2771174241657253e+00  -8.2465678282415418e+00  -8.2107798477992144e+00  -8.1730083955109833e+00  -8.1349331536487011e+00  -8.0972473176635180e+00  -8.0601030003543190e+00  -8.0233775603762041e+00  -7.9868181397557692e+00  -7.9501197739497353e+00  -7.9129760194279450e+00  -7.8751316437758403e+00  -7.8364686835819679e+00  -7.7971715150485679e+00  -7.7580408522240889e+00  -7.7210245199822838e+00  -7.6898560181058695e+00  -7.6700669290048458e+00  -7.6664705400278752e+00  -8.2800486699466695e+00  -8.2736279873484495e+00  -8.2492856789477162e+00  -8.2163664967185444e+00  -8.1810700342021683e+00  -8.1462248656378158e+00  -8.1127549242423918e+00  -8.0807199103318137e+00  -8.0498370589110202e+00  -8.0197046715852274e+00  -7.9898859804771076e+00  -7.9599340657048110e+00  -7.9293957152408696e+00  -7.8978154227248130e+00  -7.8647618510097512e+00  -7.8299201581439890e+00  -7.7933507873011649e+00  -7.7561353285534089e+00  -7.7217123019271137e+00  -7.6974406622417266e+00  -7.6927386970798448e+00  -8.2388758631527104e+00  -8.2276801895336629e+00  -8.1989748772080482e+00  -8.1664701907268746e+00  -8.1355965206878871e+00  -8.1075061443519711e+00  -8.0819306295207571e+00  -8.0582786355004394e+00  -8.0359603200143130e+00  -8.0144516462840443e+00  -7.9932834641597488e+00  -7.9720121317529431e+00  -7.9501862290040659e+00  -7.9273116991425834e+00  -7.9028172248608826e+00  -7.8760334046691671e+00  -7.8462466142440253e+00  -7.8130555311217709e+00  -7.7778033935899993e+00  -7.7476985086329462e+00  -7.7408323131723833e+00  -8.1657712690383093e+00  -8.1450594431834595e+00  -8.1174117347818786e+00  -8.0934293866346803e+00  -8.0738852961322269e+00  -8.0575995028394143e+00  -8.0434974688398455e+00  -8.0308276774629235e+00  -8.0190707536916310e+00  -8.0078454438287956e+00  -7.9968446183860680e+00  -7.9857915640730299e+00  -7.9744049187018442e+00  -7.9623623611776315e+00  -7.9492521737912174e+00  -7.9344965474131390e+00  -7.9172225743311753e+00  -7.8960768239461236e+00  -7.8692546917118396e+00  -7.8371892903972116e+00  -7.8257162864814003e+00  -8.0000000000000000e+00  -8.0000000000000000e+00  -8.0000000000000000e+00  -8.0000000000000000e+00  -8.0000000000000000e+00  -8.0000000000000000e+00  -8.0000000000000000e+00  -8.0000000000000000e+00  -8.0000000000000000e+00  -8.0000000000000000e+00  -8.0000000000000000e+00  -8.0000000000000000e+00  -8.0000000000000000e+00  -8.0000000000000000e+00  -8.0000000000000000e+00  -8.0000000000000000e+00  -8.0000000000000000e+00  -8.0000000000000000e+00  -8.0000000000000000e+00  -8.0000000000000000e+00  -8.0000000000000000e+00  </DataArray> 
</PointData> 
</Piece>
</UnstructuredGrid>
</VTKFile>