<?xml version="1.0"?>
<VTKFile type="UnstructuredGrid"  version="0.1"  >
<UnstructuredGrid>
<Piece  NumberOfPoints="651" NumberOfCells="1200">
<Points>
<DataArray  type="Float64"  NumberOfComponents="3"  format="ascii">0 0 0  50000 0 0  100000 0 0  150000 0 0  200000 0 0  250000 0 0  300000 0 0  350000 0 0  400000 0 0  450000 0 0  500000 0 0  550000 0 0  600000 0 0  650000 0 0  700000 0 0  750000 0 0  800000 0 0  850000 0 0  900000 0 0  950000 0 0  1000000 0 0  0 50000 0  50000 50000 0  100000 50000 0  150000 50000 0  200000 50000 0  250000 50000 0  300000 50000 0  350000 50000 0  400000 50000 0  450000 50000 0  500000 50000 0  550000 50000 0  600000 50000 0  650000 50000 0  700000 50000 0  750000 50000 0  800000 50000 0  850000 50000 0  900000 50000 0  950000 50000 0  1000000 50000 0  0 100000 0  50000 100000 0  100000 100000 0  150000 100000 0  200000 100000 0  250000 100000 0  300000 100000 0  350000 100000 0  400000 100000 0  450000 100000 0  500000 100000 0  550000 100000 0  600000 100000 0  650000 100000 0  700000 100000 0  750000 100000 0  800000 100000 0  850000 100000 0  900000 100000 0  950000 100000 0  1000000 100000 0  0 150000 0  50000 150000 0  100000 150000 0  150000 150000 0  200000 150000 0  250000 150000 0  300000 150000 0  350000 150000 0  400000 150000 0  450000 150000 0  500000 150000 0  550000 150000 0  600000 150000 0  650000 150000 0  700000 150000 0  750000 150000 0  800000 150000 0  850000 150000 0  900000 150000 0  950000 150000 0  1000000 150000 0  0 200000 0  50000 200000 0  100000 200000 0  150000 200000 0  200000 200000 0  250000 200000 0  300000 200000 0  350000 200000 0  400000 200000 0  450000 200000 0  500000 200000 0  550000 200000 0  600000 200000 0  650000 200000 0  700000 200000 0  750000 200000 0  800000 200000 0  850000 200000 0  900000 200000 0  950000 200000 0  1000000 200000 0  0 250000 0  50000 250000 0  100000 250000 0  150000 250000 0  200000 250000 0  250000 250000 0  300000 250000 0  350000 250000 0  400000 250000 0  450000 250000 0  500000 250000 0  550000 250000 0  600000 250000 0  650000 250000 0  700000 250000 0  750000 250000 0  800000 250000 0  850000 250000 0  900000 250000 0  950000 250000 0  1000000 250000 0  0 300000 0  50000 300000 0  100000 300000 0  150000 300000 0  200000 300000 0  250000 300000 0  300000 300000 0  350000 300000 0  400000 300000 0  450000 300000 0  500000 300000 0  550000 300000 0  600000 300000 0  650000 300000 0  700000 300000 0  750000 300000 0  800000 300000 0  850000 300000 0  900000 300000 0  950000 300000 0  1000000 300000 0  0 350000 0  50000 350000 0  100000 350000 0  150000 350000 0  200000 350000 0  250000 350000 0  300000 350000 0  350000 350000 0  400000 350000 0  450000 350000 0  500000 350000 0  550000 350000 0  600000 350000 0  650000 350000 0  700000 350000 0  750000 350000 0  800000 350000 0  850000 350000 0  900000 350000 0  950000 350000 0  1000000 350000 0  0 400000 0  50000 400000 0  100000 400000 0  150000 400000 0  200000 400000 0  250000 400000 0  300000 400000 0  350000 400000 0  400000 400000 0  450000 400000 0  500000 400000 0  550000 400000 0  600000 400000 0  650000 400000 0  700000 400000 0  750000 400000 0  800000 400000 0  850000 400000 0  900000 400000 0  950000 400000 0  1000000 400000 0  0 450000 0  50000 450000 0  100000 450000 0  150000 450000 0  200000 450000 0  250000 450000 0  300000 450000 0  350000 450000 0  400000 450000 0  450000 450000 0  500000 450000 0  550000 450000 0  600000 450000 0  650000 450000 0  700000 450000 0  750000 450000 0  800000 450000 0  850000 450000 0  900000 450000 0  950000 450000 0  1000000 450000 0  0 500000 0  50000 500000 0  100000 500000 0  150000 500000 0  200000 500000 0  250000 500000 0  300000 500000 0  350000 500000 0  400000 500000 0  450000 500000 0  500000 500000 0  550000 500000 0  600000 500000 0  650000 500000 0  700000 500000 0  750000 500000 0  800000 500000 0  850000 500000 0  900000 500000 0  950000 500000 0  1000000 500000 0  0 550000 0  50000 550000 0  100000 550000 0  150000 550000 0  200000 550000 0  250000 550000 0  300000 550000 0  350000 550000 0  400000 550000 0  450000 550000 0  500000 550000 0  550000 550000 0  600000 550000 0  650000 550000 0  700000 550000 0  750000 550000 0  800000 550000 0  850000 550000 0  900000 550000 0  950000 550000 0  1000000 550000 0  0 600000 0  50000 600000 0  100000 600000 0  150000 600000 0  200000 600000 0  250000 600000 0  300000 600000 0  350000 600000 0  400000 600000 0  450000 600000 0  500000 600000 0  550000 600000 0  600000 600000 0  650000 600000 0  700000 600000 0  750000 600000 0  800000 600000 0  850000 600000 0  900000 600000 0  950000 600000 0  1000000 600000 0  0 650000 0  50000 650000 0  100000 650000 0  150000 650000 0  200000 650000 0  250000 650000 0  300000 650000 0  350000 650000 0  400000 650000 0  450000 650000 0  500000 650000 0  550000 650000 0  600000 650000 0  650000 650000 0  700000 650000 0  750000 650000 0  800000 650000 0  850000 650000 0  900000 650000 0  950000 650000 0  1000000 650000 0  0 700000 0  50000 700000 0  100000 700000 0  150000 700000 0  200000 700000 0  250000 700000 0  300000 700000 0  350000 700000 0  400000 700000 0  450000 700000 0  500000 700000 0  550000 700000 0  600000 700000 0  650000 700000 0  700000 700000 0  750000 700000 0  800000 700000 0  850000 700000 0  900000 700000 0  950000 700000 0  1000000 700000 0  0 750000 0  50000 750000 0  100000 750000 0  150000 750000 0  200000 750000 0  250000 750000 0  300000 750000 0  350000 750000 0  400000 750000 0  450000 750000 0  500000 750000 0  550000 750000 0  600000 750000 0  650000 750000 0  700000 750000 0  750000 750000 0  800000 750000 0  850000 750000 0  900000 750000 0  950000 750000 0  1000000 750000 0  0 800000 0  50000 800000 0  100000 800000 0  150000 800000 0  200000 800000 0  250000 800000 0  300000 800000 0  350000 800000 0  400000 800000 0  450000 800000 0  500000 800000 0  550000 800000 0  600000 800000 0  650000 800000 0  700000 800000 0  750000 800000 0  800000 800000 0  850000 800000 0  900000 800000 0  950000 800000 0  1000000 800000 0  0 850000 0  50000 850000 0  100000 850000 0  150000 850000 0  200000 850000 0  250000 850000 0  300000 850000 0  350000 850000 0  400000 850000 0  450000 850000 0  500000 850000 0  550000 850000 0  600000 850000 0  650000 850000 0  700000 850000 0  750000 850000 0  800000 850000 0  850000 850000 0  900000 850000 0  950000 850000 0  1000000 850000 0  0 900000 0  50000 900000 0  100000 900000 0  150000 900000 0  200000 900000 0  250000 900000 0  300000 900000 0  350000 900000 0  400000 900000 0  450000 900000 0  500000 900000 0  550000 900000 0  600000 900000 0  650000 900000 0  700000 900000 0  750000 900000 0  800000 900000 0  850000 900000 0  900000 900000 0  950000 900000 0  1000000 900000 0  0 950000 0  50000 950000 0  100000 950000 0  150000 950000 0  200000 950000 0  250000 950000 0  300000 950000 0  350000 950000 0  400000 950000 0  450000 950000 0  500000 950000 0  550000 950000 0  600000 950000 0  650000 950000 0  700000 950000 0  750000 950000 0  800000 950000 0  850000 950000 0  900000 950000 0  950000 950000 0  1000000 950000 0  0 1000000 0  50000 1000000 0  100000 1000000 0  150000 1000000 0  200000 1000000 0  250000 1000000 0  300000 1000000 0  350000 1000000 0  400000 1000000 0  450000 1000000 0  500000 1000000 0  550000 1000000 0  600000 1000000 0  650000 1000000 0  700000 1000000 0  750000 1000000 0  800000 1000000 0  850000 1000000 0  900000 1000000 0  950000 1000000 0  1000000 1000000 0  0 1050000 0  50000 1050000 0  100000 1050000 0  150000 1050000 0  200000 1050000 0  250000 1050000 0  300000 1050000 0  350000 1050000 0  400000 1050000 0  450000 1050000 0  500000 1050000 0  550000 1050000 0  600000 1050000 0  650000 1050000 0  700000 1050000 0  750000 1050000 0  800000 1050000 0  850000 1050000 0  900000 1050000 0  950000 1050000 0  1000000 1050000 0  0 1100000 0  50000 1100000 0  100000 1100000 0  150000 1100000 0  200000 1100000 0  250000 1100000 0  300000 1100000 0  350000 1100000 0  400000 1100000 0  450000 1100000 0  500000 1100000 0  550000 1100000 0  600000 1100000 0  650000 1100000 0  700000 1100000 0  750000 1100000 0  800000 1100000 0  850000 1100000 0  900000 1100000 0  950000 1100000 0  1000000 1100000 0  0 1150000 0  50000 1150000 0  100000 1150000 0  150000 1150000 0  200000 1150000 0  250000 1150000 0  300000 1150000 0  350000 1150000 0  400000 1150000 0  450000 1150000 0  500000 1150000 0  550000 1150000 0  600000 1150000 0  650000 1150000 0  700000 1150000 0  750000 1150000 0  800000 1150000 0  850000 1150000 0  900000 1150000 0  950000 1150000 0  1000000 1150000 0  0 1200000 0  50000 1200000 0  100000 1200000 0  150000 1200000 0  200000 1200000 0  250000 1200000 0  300000 1200000 0  350000 1200000 0  400000 1200000 0  450000 1200000 0  500000 1200000 0  550000 1200000 0  600000 1200000 0  650000 1200000 0  700000 1200000 0  750000 1200000 0  800000 1200000 0  850000 1200000 0  900000 1200000 0  950000 1200000 0  1000000 1200000 0  0 1250000 0  50000 1250000 0  100000 1250000 0  150000 1250000 0  200000 1250000 0  250000 1250000 0  300000 1250000 0  350000 1250000 0  400000 1250000 0  450000 1250000 0  500000 1250000 0  550000 1250000 0  600000 1250000 0  650000 1250000 0  700000 1250000 0  750000 1250000 0  800000 1250000 0  850000 1250000 0  900000 1250000 0  950000 1250000 0  1000000 1250000 0  0 1300000 0  50000 1300000 0  100000 1300000 0  150000 1300000 0  200000 1300000 0  250000 1300000 0  300000 1300000 0  350000 1300000 0  400000 1300000 0  450000 1300000 0  500000 1300000 0  550000 1300000 0  600000 1300000 0  650000 1300000 0  700000 1300000 0  750000 1300000 0  800000 1300000 0  850000 1300000 0  900000 1300000 0  950000 1300000 0  1000000 1300000 0  0 1350000 0  50000 1350000 0  100000 1350000 0  150000 1350000 0  200000 1350000 0  250000 1350000 0  300000 1350000 0  350000 1350000 0  400000 1350000 0  450000 1350000 0  500000 1350000 0  550000 1350000 0  600000 1350000 0  650000 1350000 0  700000 135
[...]
<PointData  Scalars="f_1511"> 
<DataArray  type="Float64"  Name="f_1511"  format="ascii">-8.0233655869341423e+00  -8.0230376652106283e+00  -8.0214309367560350e+00  -8.0185402884280919e+00  -8.0144401528131581e+00  -8.0092392434870039e+00  -8.0030754976423122e+00  -7.9961121209120973e+00  -7.9885331854725434e+00  -7.9805386990622535e+00  -7.9723392678846938e+00  -7.9641504977347193e+00  -7.9561872793508162e+00  -7.9486581057564356e+00  -7.9417595748647072e+00  -7.9356712511958385e+00  -7.9305511388355008e+00  -7.9265322628471342e+00  -7.9237211457450583e+00  -7.9221925378924212e+00  -7.9218598750967573e+00  -8.0236745205064874e+00  -8.0233538098899597e+00  -8.0217242152219637e+00  -8.0188144211241443e+00  -8.0146928970997795e+00  -8.0094663477120172e+00  -8.0032722305080561e+00  -7.9962740171730307e+00  -7.9886564268298006e+00  -7.9806203280967702e+00  -7.9723773153083908e+00  -7.9641440530421805e+00  -7.9561365154304031e+00  -7.9485642581396529e+00  -7.9416248655211561e+00  -7.9354987163262685e+00  -7.9303441923496694e+00  -7.9262933043013977e+00  -7.9234468912575036e+00  -7.9218648160447689e+00  -7.9215320837020888e+00  -8.0251808140302199e+00  -8.0248819622049776e+00  -8.0232147981949922e+00  -8.0202172742750637e+00  -8.0159713406663862e+00  -8.0105891258498563e+00  -8.0042122265801066e+00  -7.9970085123803543e+00  -7.9891676887222962e+00  -7.9808961402304588e+00  -7.9724113452686938e+00  -7.9639360411350415e+00  -7.9556922847925211e+00  -7.9478955497602612e+00  -7.9407490037267889e+00  -7.9344381204919134e+00  -7.9291257941020055e+00  -7.9249481245423468e+00  -7.9220108793971313e+00  -7.9203850992780023e+00  -7.9200860719291573e+00  -8.0278659355400688e+00  -8.0275701546495419e+00  -8.0258402166817291e+00  -8.0227001389600545e+00  -8.0182402426644632e+00  -8.0125829499068946e+00  -8.0058792517169497e+00  -7.9983064197885749e+00  -7.9900640573053376e+00  -7.9813690267824127e+00  -7.9724497401899681e+00  -7.9635401075967280e+00  -7.9548733492519101e+00  -7.9466758431237157e+00  -7.9391611789299850e+00  -7.9325246124939595e+00  -7.9269381604803790e+00  -7.9225466008472196e+00  -7.9194642519066534e+00  -7.9177690819896043e+00  -7.9174695542898617e+00  -8.0316886505923915e+00  -8.0313842672440483e+00  -8.0295556159989001e+00  -8.0262146171633031e+00  -8.0214551809484753e+00  -8.0154102609844866e+00  -8.0082435689124605e+00  -8.0001461218358507e+00  -7.9913321318888482e+00  -7.9820338267937974e+00  -7.9724955366107046e+00  -7.9629673653964570e+00  -7.9536986897081849e+00  -7.9449316861229002e+00  -7.9368950841596302e+00  -7.9297983599867790e+00  -7.9238266072505521e+00  -7.9191362211178147e+00  -7.9158506905380719e+00  -7.9140513089605822e+00  -7.9137350376444759e+00  -8.0366256656371249e+00  -8.0363039061402048e+00  -8.0343391977059753e+00  -8.0307354167841503e+00  -8.0255901089502935e+00  -8.0190471168258526e+00  -8.0112851064508011e+00  -8.0025123976424215e+00  -7.9929620743822616e+00  -7.9828863533315992e+00  -7.9725502852730585e+00  -7.9622250353852984e+00  -7.9521809759685835e+00  -7.9426808001156379e+00  -7.9339728576266584e+00  -7.9262849193115130e+00  -7.9198185519727673e+00  -7.9147440678436443e+00  -7.9111949213435082e+00  -7.9092555661878432e+00  -7.9089136638076685e+00  -8.0426703265047337e+00  -8.0423237066321995e+00  -8.0401859109891198e+00  -8.0362558673339066e+00  -8.0306366876592747e+00  -8.0234846779659019e+00  -8.0149957685621676e+00  -8.0053988284767303e+00  -7.9949497543786343e+00  -7.9839251190772327e+00  -7.9726152908465711e+00  -7.9613171835326675e+00  -7.9503268326149499e+00  -7.9399319860746642e+00  -7.9304048941121597e+00  -7.9219954762554901e+00  -7.9149249919069495e+00  -7.9093800653246715e+00  -7.9055057326347455e+00  -7.9033911114840567e+00  -7.9030168611183793e+00  -8.0498292121116641e+00  -8.0494507854542423e+00  -8.0471031608709627e+00  -8.0427823346512763e+00  -8.0365994822110363e+00  -8.0287257902544056e+00  -8.0193772052613710e+00  -8.0088064630598161e+00  -7.9972961114084642e+00  -7.9851512868710728e+00  -7.9726921000621367e+00  -7.9602457314909696e+00  -7.9481383870765541e+00  -7.9366872647523490e+00  -7.9261926826098126e+00  -7.9169305134677552e+00  -7.9091450141329025e+00  -7.9030418518634411e+00  -7.8987799007404131e+00  -7.8964550004632121e+00  -7.8960423217663518e+00  -8.0581183474707245e+00  -8.0577013354211982e+00  -8.0551069945959650e+00  -8.0503297252576225e+00  -8.0434913942142394e+00  -8.0347809827564163e+00  -8.0244376450936787e+00  -8.0127415310707750e+00  -8.0000057259127964e+00  -7.9865680698220629e+00  -7.9727827103903772e+00  -7.9590114589088818e+00  -7.9456150533135865e+00  -7.9329444288709947e+00  -7.9213321003082893e+00  -7.9110837635796809e+00  -7.9024701841152707e+00  -7.8957191634332506e+00  -7.8910060901269912e+00  -7.8884357401338905e+00  -7.8879787250295461e+00  -8.0675591395554171e+00  -8.0670967242468059e+00  -8.0642181965190591e+00  -8.0589173607456956e+00  -8.0513294711679055e+00  -8.0416645637975606e+00  -8.0301885759288645e+00  -8.0172128889954806e+00  -8.0030851249448478e+00  -7.9881799420524207e+00  -7.9728896991195430e+00  -7.9576150375848496e+00  -7.9427554314022339e+00  -7.9286997388030898e+00  -7.9158167957361423e+00  -7.9044461138682136e+00  -7.8948887341423628e+00  -7.8873980325804327e+00  -7.8821689122642669e+00  -7.8793173902191374e+00  -7.8788101293108150e+00  -8.0781738828054355e+00  -8.0776590740603673e+00  -8.0744579589795773e+00  -8.0685646525396812e+00  -8.0601306454383241e+00  -8.0493906263121637e+00  -8.0366412628863308e+00  -8.0222292639015738e+00  -8.0065409073261709e+00  -7.9899917421597166e+00  -7.9730163468115016e+00  -7.9560581637098942e+00  -7.9395593863679110e+00  -7.9239508371332938e+00  -7.9096417827029661e+00  -7.8970096846196540e+00  -7.8863899131240185e+00  -7.8780652293974089e+00  -7.8722533889358912e+00  -7.8690841147668875e+00  -7.8685206165794117e+00  -8.0899806290593403e+00  -8.0894061692543975e+00  -8.0858428841431422e+00  -8.0792861975100632e+00  -8.0699069892264301e+00  -8.0579686262244525e+00  -8.0438028742089589e+00  -8.0277961561510285e+00  -8.0103776169898904e+00  -7.9920076520888399e+00  -7.9731667859870257e+00  -7.9543448659491407e+00  -7.9360304328559188e+00  -7.9187000634109452e+00  -7.9028074904782404e+00  -7.8887723957557423e+00  -7.8769688606065262e+00  -7.8677132868237747e+00  -7.8612500596466086e+00  -7.8577253697652489e+00  -7.8570995191408119e+00  -8.1029871883799895e+00  -8.1023454774713546e+00  -8.0983790748872533e+00  -8.0910859806329025e+00  -8.0806601270514857e+00  -8.0673981869447413e+00  -8.0516719233831111e+00  -8.0339121834510436e+00  -8.0145952255893818e+00  -7.9942299909989316e+00  -7.9733461919350130e+00  -7.9524830817242949e+00  -7.9321785904876156e+00  -7.9129584014669572e+00  -7.8953245610389553e+00  -7.8797433531273668e+00  -7.8666323448629107e+00  -7.8563464165105046e+00  -7.8491609835642535e+00  -7.8452419592231788e+00  -7.8445474939961652e+00  -8.1171839982376959e+00  -8.1164670264875749e+00  -8.1120550412366015e+00  -8.1039503668090749e+00  -8.0923744495933700e+00  -8.0776627686759941e+00  -8.0602327001817358e+00  -8.0405646035795346e+00  -8.0191860455733810e+00  -7.9966577392887608e+00  -7.9735610283774845e+00  -7.9504866103817742e+00  -7.9280239076745316e+00  -7.9067503331543385e+00  -7.8872197229571821e+00  -7.8699494115545416e+00  -7.8554057165000932e+00  -7.8439876330299665e+00  -7.8360069142093565e+00  -7.8316532222214068e+00  -7.8308837137018656e+00  -8.1325355656194365e+00  -8.1317348406375132e+00  -8.1268331033473533e+00  -8.1178395216286869e+00  -8.1050087326307221e+00  -8.0887217989229754e+00  -8.0694483184041825e+00  -8.0477237107001258e+00  -8.0241308618329565e+00  -7.9992846895201364e+00  -7.9738193598529259e+00  -7.9483775691954186e+00  -7.9236008853479820e+00  -7.9001199181537505e+00  -7.8785431227982867e+00  -7.8594433218327682e+00  -7.8433414748125978e+00  -7.8306874473183443e+00  -7.8218359667872246e+00  -7.8170056477734366e+00  -7.8161544689043758e+00  -8.1489701474860485e+00  -8.1480765965298456e+00  -8.1426389138996811e+00  -8.1326768315752211e+00  -8.1184856916338362e+00  -8.1005007908349800e+00  -8.0792519479171645e+00  -8.0553357536924128e+00  -8.0293940389073288e+00  -8.0020971052905399e+00  -7.9741312423601514e+00  -7.9461894940881512e+00  -7.9189640657374136e+00  -7.8931384712653179e+00  -7.8693775620784470e+00  -7.8483139451336701e+00  -7.8305299208626717e+00  -7.8165345596231743e+00  -7.8067341548157358e+00  -7.8013832578320361e+00  -7.8004435165502324e+00  -8.1663672853022593e+00  -8.1653711023683133e+00  -8.1593486452267765e+00  -8.1483357957016267e+00  -8.1326788979841780e+00  -8.1128788831456742e+00  -8.0895357293552035e+00  -8.0633139815770551e+00  -8.0349173379229182e+00  -8.0050707590825514e+00  -7.9745092019425972e+00  -7.9439712348168845e+00  -7.9141950759492170e+00  -7.8859142582689614e+00  -7.8598501661614941e+00  -7.8366991196986415e+00  -7.8171124811928845e+00  -7.8016690825453487e+00  -7.7908382513150922e+00  -7.7849201572440467e+00  -7.7838845613721084e+00  -8.1845427401965338e+00  -8.1834331271634166e+00  -8.1767732749372630e+00  -8.1646237204388452e+00  -8.1473963425295981e+00  -8.1256731270337426e+00  -8.1001368092432919e+00  -8.0715274031354944e+00  -8.0406121822370427e+00  -8.0081672257323024e+00  -7.9749688047595244e+00  -7.9417917794288755e+00  -7.9094114096596115e+00  -7.8786046570005723e+00  -7.8501470863405887e+00  -7.8248018885769408e+00  -7.8032984375350232e+00  -7.7862989707827976e+00  -7.7743515453803864e+00  -7.7678157346909051e+00  -7.7666763368341867e+00  -8.2032302683975633e+00  -8.2019949838743180e+00  -8.1946392293405097e+00  -8.1812613409407096e+00  -8.1623597480482761e+00  -8.1386187383435029e+00  -8.1108199194841326e+00  -8.0797869014139412e+00  -8.0463501824272061e+00  -8.0113293498161546e+00  -7.9755293074113149e+00  -7.9397460770359833e+00  -7.9047771490390266e+00  -7.8714311857822903e+00  -7.8405318745781916e+00  -7.8129109339046332e+00  -7.7893860059576854e+00  -7.7707205554731997e+00  -7.7575632474774663e+00  -7.7503531343750520e+00  -7.7491008771881358e+00  -8.2220594953547259e+00  -8.2206840605578595e+00  -8.2125643497539791e+00  -8.1978571686143162e+00  -8.1771784954549087e+00  -8.1513444693281940e+00  -8.1212560357272654e+00  -8.0878285566588772e+00  -8.0519519411279514e+00  -8.0144759193438038e+00  -7.9762143457617896e+00  -7.9379617621308682e+00  -7.9005155932626883e+00  -7.8646975979153249e+00  -7.8313681018441326e+00  -7.8014261855027440e+00  -7.7757889959397719e+00  -7.7553444327377834e+00  -7.7408726050910310e+00  -7.7329218512902154e+00  -7.7315457882344969e+00  -8.2405288193115993e+00  -8.2389951076800845e+00  -8.2300276193417208e+00  -8.2138748412101226e+00  -8.1913167411410299e+00  -8.1633423282850348e+00  -8.1309970365598172e+00  -8.0952945603485755e+00  -8.0571746262018280e+00  -8.0174958238794662e+00  -7.9770525634148406e+00  -7.9366063378847018e+00  -7.8969232332714752e+00  -7.8588107154255766e+00  -7.8231464729445204e+00  -7.7908906080685147e+00  -7.7630706722517466e+00  -7.7407285391706333e+00  -7.7248193405790122e+00  -7.7160457261461683e+00  -7.7145317168128127e+00  -8.2579716594813188e+00  -8.2562553447886575e+00  -8.2463300986137487e+00  -8.2285908889832537e+00  -8.2040520142383624e+00  -8.1739313063024728e+00  -8.1394472387696180e+00  -8.1017132122610764e+00  -8.0616997108349917e+00  -8.0202424388372346e+00  -7.9780779831626987e+00  -7.9358937336169308e+00  -7.8943834794114736e+00  -7.8543025422067902e+00  -7.8165158400865256e+00  -7.7820289454684373e+00  -7.7519869509131807e+00  -7.7276212434583282e+00  -7.7101230490318162e+00  -7.7004184162954852e+00  -7.6987469598035680e+00  -8.2735131798561827e+00  -8.2715789485354456e+00  -8.2605425980652551e+00  -8.2410389244133775e+00  -8.2144235035022479e+00  -8.1822160436927440e+00  -8.1458347283482393e+00  -8.1064815880542760e+00  -8.0651238753949688e+00  -8.0225297632110273e+00  -7.9793297733211865e+00  -7.9360880730140977e+00  -7.8933767078011030e+00  -7.8518499864384665e+00  -7.8123155848725618e+00  -7.7757932866495754e+00  -7.7435416036983638e+00  -7.7170190081684851e+00  -7.6977361798561965e+00  -7.6869499862788278e+00  -7.6850925970946768e+00  -8.2860123013821969e+00  -8.2838043033573605e+00  -8.2714318055077296e+00  -8.2499341352738735e+00  -8.2211690708596201e+00  -8.1870445370175773e+00  -8.1491894363342325e+00  -8.1088580812007418e+00  -8.0669585818470733e+00  -8.0241330199584482e+00  -7.9808508597004790e+00  -7.9375008801352731e+00  -7.8944802170423198e+00  -7.8522845367640830e+00  -7.8116027861326325e+00  -7.7734126968978305e+00  -7.7390562975641251e+00  -7.7102461245020617e+00  -7.6889192129846160e+00  -7.6768314575422920e+00  -7.6747444512463954e+00  -8.2939791932831923e+00  -8.2914001962977419e+00  -8.2773489685696742e+00  -8.2535694746462021e+00  -8.2226538162709062e+00  -8.1869762204429435e+00  -8.1483422663520084e+00  -8.1079776294429085e+00  -8.0666472559385145e+00  -8.0247979206994611e+00  -7.9826846341723927e+00  -7.9404759492731447e+00  -7.8983474879527860e+00  -7.8565776607977922e+00  -7.8156595666853121e+00  -7.7764374044105686e+00  -7.7402564626597634e+00  -7.7090687605680399e+00  -7.6853549592676087e+00  -7.6716310528969700e+00  -7.6692443838362401e+00  -8.2954489629720243e+00  -8.2923094574425491e+00  -8.2760505018643151e+00  -8.2496751205692274e+00  -8.2168052978963875e+00  -8.1802870980106022e+00  -8.1419717346805704e+00  -8.1029097609890073e+00  -8.0636125336614715e+00  -8.0242640747141447e+00  -7.9848689411713387e+00  -7.9453544542875747e+00  -7.9056515451953615e+00  -7.8657782865331978e+00  -7.8259512296122038e+00  -7.7867515310455273e+00  -7.7493646788791848e+00  -7.7158615919012377e+00  -7.6893369465161605e+00  -7.6734520443103742e+00  -7.6706476716665719e+00  -8.2877710453312723e+00  -8.2836515136216473e+00  -8.2643954895918199e+00  -8.2352487099977978e+00  -8.2011045960682569e+00  -8.1650680118186401e+00  -8.1287413304878076e+00  -8.0927859260287658e+00  -8.0573470049847682e+00  -8.0223076536682001e+00  -7.9874267220139323e+00  -7.9524133455237607e+00  -7.9169752513872593e+00  -7.8808690302534226e+00  -7.8439822328769733e+00  -7.8064908229104644e+00  -7.7691586531936787e+00  -7.7338436579839573e+00  -7.7041068916869939e+00  -7.6852246843997118e+00  -7.6817897316492143e+00  -8.2672080171456113e+00  -8.2610760158606986e+00  -8.2378489708845759e+00  -8.2064405626492753e+00  -8.1727643471691866e+00  -8.1395185254482438e+00  -8.1075845311483157e+00  -8.0770193897946765e+00  -8.0475534120477832e+00  -8.0188034269097734e+00  -7.9903527927353286e+00  -7.9617751791334177e+00  -7.9326382607774830e+00  -7.9025075423848721e+00  -7.8709716133521610e+00  -7.8377302232368535e+00  -7.8028411195595178e+00  -7.7673360109606273e+00  -7.7344944612283415e+00  -7.7113354586217602e+00  -7.7068446769567815e+00  -8.2279322033295959e+00  -8.2172427773200969e+00  -8.1898523220239259e+00  -8.1588386208356471e+00  -8.1293812625320623e+00  -8.1025792345418850e+00  -8.0781764435893191e+00  -8.0556087897571320e+00  -8.0343135846832876e+00  -8.0137908965130027e+00  -7.9935931436931744e+00  -7.9732970789143769e+00  -7.9524720438004417e+00  -7.9306467247624077e+00  -7.9072761358293118e+00  -7.8817217687298129e+00  -7.8533029775694381e+00  -7.8216370154879167e+00  -7.7880049511017777e+00  -7.7592812797274036e+00  -7.7527242435930432e+00  -8.1581823229529871e+00  -8.1384135954155568e+00  -8.1120321542457816e+00  -8.0891493951030480e+00  -8.0705012596157495e+00  -8.0549617477846844e+00  -8.0415057262822849e+00  -8.0294162431959517e+00  -8.0181977903767407e+00  -8.0074866162117111e+00  -7.9969896813873005e+00  -7.9864429663498031e+00  -7.9755780222005166e+00  -7.9640873346498902e+00  -7.9515781217562962e+00  -7.9374991820667020e+00  -7.9210178476857749e+00  -7.9008431045619272e+00  -7.8752534395535276e+00  -7.8446612089005443e+00  -7.8337082811255225e+00  -8.0000000000000000e+00  -8.0000000000000000e+00  -8.0000000000000000e+00  -8.0000000000000000e+00  -8.0000000000000000e+00  -8.0000000000000000e+00  -8.0000000000000000e+00  -8.0000000000000000e+00  -8.0000000000000000e+00  -8.0000000000000000e+00  -8.0000000000000000e+00  -8.0000000000000000e+00  -8.0000000000000000e+00  -8.0000000000000000e+00  -8.0000000000000000e+00  -8.0000000000000000e+00  -8.0000000000000000e+00  -8.0000000000000000e+00  -8.0000000000000000e+00  -8.0000000000000000e+00  -8.0000000000000000e+00  </DataArray> 
</PointData> 
</Piece>
</UnstructuredGrid>
</VTKFile>