<?xml version="1.0"?>
<VTKFile type="UnstructuredGrid"  version="0.1"  >
<UnstructuredGrid>
<Piece  NumberOfPoints="651" NumberOfCells="1200">
<Points>
<DataArray  type="Float64"  NumberOfComponents="3"  format="ascii">0 0 0  50000 0 0  100000 0 0  150000 0 0  200000 0 0  250000 0 0  300000 0 0  350000 0 0  400000 0 0  450000 0 0  500000 0 0  550000 0 0  600000 0 0  650000 0 0  700000 0 0  750000 0 0  800000 0 0  850000 0 0  900000 0 0  950000 0 0  1000000 0 0  0 50000 0  50000 50000 0  100000 50000 0  150000 50000 0  200000 50000 0  250000 50000 0  300000 50000 0  350000 50000 0  400000 50000 0  450000 50000 0  500000 50000 0  550000 50000 0  600000 50000 0  650000 50000 0  700000 50000 0  750000 50000 0  800000 50000 0  850000 50000 0  900000 50000 0  950000 50000 0  1000000 50000 0  0 100000 0  50000 100000 0  100000 100000 0  150000 100000 0  200000 100000 0  250000 100000 0  300000 100000 0  350000 100000 0  400000 100000 0  450000 100000 0  500000 100000 0  550000 100000 0  600000 100000 0  650000 100000 0  700000 100000 0  750000 100000 0  800000 100000 0  850000 100000 0  900000 100000 0  950000 100000 0  1000000 100000 0  0 150000 0  50000 150000 0  100000 150000 0  150000 150000 0  200000 150000 0  250000 150000 0  300000 150000 0  350000 150000 0  400000 150000 0  450000 150000 0  500000 150000 0  550000 150000 0  600000 150000 0  650000 150000 0  700000 150000 0  750000 150000 0  800000 150000 0  850000 150000 0  900000 150000 0  950000 150000 0  1000000 150000 0  0 200000 0  50000 200000 0  100000 200000 0  150000 200000 0  200000 200000 0  250000 200000 0  300000 200000 0  350000 200000 0  400000 200000 0  450000 200000 0  500000 200000 0  550000 200000 0  600000 200000 0  650000 200000 0  700000 200000 0  750000 200000 0  800000 200000 0  850000 200000 0  900000 200000 0  950000 200000 0  1000000 200000 0  0 250000 0  50000 250000 0  100000 250000 0  150000 250000 0  200000 250000 0  250000 250000 0  300000 250000 0  350000 250000 0  400000 250000 0  450000 250000 0  500000 250000 0  550000 250000 0  600000 250000 0  650000 250000 0  700000 250000 0  750000 250000 0  800000 250000 0  850000 250000 0  900000 250000 0  950000 250000 0  1000000 250000 0  0 300000 0  50000 300000 0  100000 300000 0  150000 300000 0  200000 300000 0  250000 300000 0  300000 300000 0  350000 300000 0  400000 300000 0  450000 300000 0  500000 300000 0  550000 300000 0  600000 300000 0  650000 300000 0  700000 300000 0  750000 300000 0  800000 300000 0  850000 300000 0  900000 300000 0  950000 300000 0  1000000 300000 0  0 350000 0  50000 350000 0  100000 350000 0  150000 350000 0  200000 350000 0  250000 350000 0  300000 350000 0  350000 350000 0  400000 350000 0  450000 350000 0  500000 350000 0  550000 350000 0  600000 350000 0  650000 350000 0  700000 350000 0  750000 350000 0  800000 350000 0  850000 350000 0  900000 350000 0  950000 350000 0  1000000 350000 0  0 400000 0  50000 400000 0  100000 400000 0  150000 400000 0  200000 400000 0  250000 400000 0  300000 400000 0  350000 400000 0  400000 400000 0  450000 400000 0  500000 400000 0  550000 400000 0  600000 400000 0  650000 400000 0  700000 400000 0  750000 400000 0  800000 400000 0  850000 400000 0  900000 400000 0  950000 400000 0  1000000 400000 0  0 450000 0  50000 450000 0  100000 450000 0  150000 450000 0  200000 450000 0  250000 450000 0  300000 450000 0  350000 450000 0  400000 450000 0  450000 450000 0  500000 450000 0  550000 450000 0  600000 450000 0  650000 450000 0  700000 450000 0  750000 450000 0  800000 450000 0  850000 450000 0  900000 450000 0  950000 450000 0  1000000 450000 0  0 500000 0  50000 500000 0  100000 500000 0  150000 500000 0  200000 500000 0  250000 500000 0  300000 500000 0  350000 500000 0  400000 500000 0  450000 500000 0  500000 500000 0  550000 500000 0  600000 500000 0  650000 500000 0  700000 500000 0  750000 500000 0  800000 500000 0  850000 500000 0  900000 500000 0  950000 500000 0  1000000 500000 0  0 550000 0  50000 550000 0  100000 550000 0  150000 550000 0  200000 550000 0  250000 550000 0  300000 550000 0  350000 550000 0  400000 550000 0  450000 550000 0  500000 550000 0  550000 550000 0  600000 550000 0  650000 550000 0  700000 550000 0  750000 550000 0  800000 550000 0  850000 550000 0  900000 550000 0  950000 550000 0  1000000 550000 0  0 600000 0  50000 600000 0  100000 600000 0  150000 600000 0  200000 600000 0  250000 600000 0  300000 600000 0  350000 600000 0  400000 600000 0  450000 600000 0  500000 600000 0  550000 600000 0  600000 600000 0  650000 600000 0  700000 600000 0  750000 600000 0  800000 600000 0  850000 600000 0  900000 600000 0  950000 600000 0  1000000 600000 0  0 650000 0  50000 650000 0  100000 650000 0  150000 650000 0  200000 650000 0  250000 650000 0  300000 650000 0  350000 650000 0  400000 650000 0  450000 650000 0  500000 650000 0  550000 650000 0  600000 650000 0  650000 650000 0  700000 650000 0  750000 650000 0  800000 650000 0  850000 650000 0  900000 650000 0  950000 650000 0  1000000 650000 0  0 700000 0  50000 700000 0  100000 700000 0  150000 700000 0  200000 700000 0  250000 700000 0  300000 700000 0  350000 700000 0  400000 700000 0  450000 700000 0  500000 700000 0  550000 700000 0  600000 700000 0  650000 700000 0  700000 700000 0  750000 700000 0  800000 700000 0  850000 700000 0  900000 700000 0  950000 700000 0  1000000 700000 0  0 750000 0  50000 750000 0  100000 750000 0  150000 750000 0  200000 750000 0  250000 750000 0  300000 750000 0  350000 750000 0  400000 750000 0  450000 750000 0  500000 750000 0  550000 750000 0  600000 750000 0  650000 750000 0  700000 750000 0  750000 750000 0  800000 750000 0  850000 750000 0  900000 750000 0  950000 750000 0  1000000 750000 0  0 800000 0  50000 800000 0  100000 800000 0  150000 800000 0  200000 800000 0  250000 800000 0  300000 800000 0  350000 800000 0  400000 800000 0  450000 800000 0  500000 800000 0  550000 800000 0  600000 800000 0  650000 800000 0  700000 800000 0  750000 800000 0  800000 800000 0  850000 800000 0  900000 800000 0  950000 800000 0  1000000 800000 0  0 850000 0  50000 850000 0  100000 850000 0  150000 850000 0  200000 850000 0  250000 850000 0  300000 850000 0  350000 850000 0  400000 850000 0  450000 850000 0  500000 850000 0  550000 850000 0  600000 850000 0  650000 850000 0  700000 850000 0  750000 850000 0  800000 850000 0  850000 850000 0  900000 850000 0  950000 850000 0  1000000 850000 0  0 900000 0  50000 900000 0  100000 900000 0  150000 900000 0  200000 900000 0  250000 900000 0  300000 900000 0  350000 900000 0  400000 900000 0  450000 900000 0  500000 900000 0  550000 900000 0  600000 900000 0  650000 900000 0  700000 900000 0  750000 900000 0  800000 900000 0  850000 900000 0  900000 900000 0  950000 900000 0  1000000 900000 0  0 950000 0  50000 950000 0  100000 950000 0  150000 950000 0  200000 950000 0  250000 950000 0  300000 950000 0  350000 950000 0  400000 950000 0  450000 950000 0  500000 950000 0  550000 950000 0  600000 950000 0  650000 950000 0  700000 950000 0  750000 950000 0  800000 950000 0  850000 950000 0  900000 950000 0  950000 950000 0  1000000 950000 0  0 1000000 0  50000 1000000 0  100000 1000000 0  150000 1000000 0  200000 1000000 0  250000 1000000 0  300000 1000000 0  350000 1000000 0  400000 1000000 0  450000 1000000 0  500000 1000000 0  550000 1000000 0  600000 1000000 0  650000 1000000 0  700000 1000000 0  750000 1000000 0  800000 1000000 0  850000 1000000 0  900000 1000000 0  950000 1000000 0  1000000 1000000 0  0 1050000 0  50000 1050000 0  100000 1050000 0  150000 1050000 0  200000 1050000 0  250000 1050000 0  300000 1050000 0  350000 1050000 0  400000 1050000 0  450000 1050000 0  500000 1050000 0  550000 1050000 0  600000 1050000 0  650000 1050000 0  700000 1050000 0  750000 1050000 0  800000 1050000 0  850000 1050000 0  900000 1050000 0  950000 1050000 0  1000000 1050000 0  0 1100000 0  50000 1100000 0  100000 1100000 0  150000 1100000 0  200000 1100000 0  250000 1100000 0  300000 1100000 0  350000 1100000 0  400000 1100000 0  450000 1100000 0  500000 1100000 0  550000 1100000 0  600000 1100000 0  650000 1100000 0  700000 1100000 0  750000 1100000 0  800000 1100000 0  850000 1100000 0  900000 1100000 0  950000 1100000 0  1000000 1100000 0  0 1150000 0  50000 1150000 0  100000 1150000 0  150000 1150000 0  200000 1150000 0  250000 1150000 0  300000 1150000 0  350000 1150000 0  400000 1150000 0  450000 1150000 0  500000 1150000 0  550000 1150000 0  600000 1150000 0  650000 1150000 0  700000 1150000 0  750000 1150000 0  800000 1150000 0  850000 1150000 0  900000 1150000 0  950000 1150000 0  1000000 1150000 0  0 1200000 0  50000 1200000 0  100000 1200000 0  150000 1200000 0  200000 1200000 0  250000 1200000 0  300000 1200000 0  350000 1200000 0  400000 1200000 0  450000 1200000 0  500000 1200000 0  550000 1200000 0  600000 1200000 0  650000 1200000 0  700000 1200000 0  750000 1200000 0  800000 1200000 0  850000 1200000 0  900000 1200000 0  950000 1200000 0  1000000 1200000 0  0 1250000 0  50000 1250000 0  100000 1250000 0  150000 1250000 0  200000 1250000 0  250000 1250000 0  300000 1250000 0  350000 1250000 0  400000 1250000 0  450000 1250000 0  500000 1250000 0  550000 1250000 0  600000 1250000 0  650000 1250000 0  700000 1250000 0  750000 1250000 0  800000 1250000 0  850000 1250000 0  900000 1250000 0  950000 1250000 0  1000000 1250000 0  0 1300000 0  50000 1300000 0  100000 1300000 0  150000 1300000 0  200000 1300000 0  250000 1300000 0  300000 1300000 0  350000 1300000 0  400000 1300000 0  450000 1300000 0  500000 1300000 0  550000 1300000 0  600000 1300000 0  650000 1300000 0  700000 1300000 0  750000 1300000 0  800000 1300000 0  850000 1300000 0  900000 1300000 0  950000 1300000 0  1000000 1300000 0  0 1350000 0  50000 1350000 0  100000 1350000 0  150000 1350000 0  200000 1350000 0  250000 1350000 0  300000 1350000 0  350000 1350000 0  400000 1350000 0  450000 1350000 0  500000 1350000 0  550000 1350000 0  600000 1350000 0  650000 1350000 0  700000 135
[...]
<PointData  Scalars="f_1511"> 
<DataArray  type="Float64"  Name="f_1511"  format="ascii">-8.0413217968202506e+00  -8.0407445412340479e+00  -8.0378917961025014e+00  -8.0327550577321993e+00  -8.0254678320547814e+00  -8.0162242393055791e+00  -8.0052700102584460e+00  -7.9928954903750498e+00  -7.9794278627276727e+00  -7.9652224373041900e+00  -7.9506532250960937e+00  -7.9361030523156781e+00  -7.9219534719580640e+00  -7.9085747326348033e+00  -7.8963160745441563e+00  -7.8854966599931240e+00  -7.8763975884079693e+00  -7.8692558924082805e+00  -7.8642619491847903e+00  -7.8615501847402438e+00  -7.8609650433929783e+00  -8.0418691886455047e+00  -8.0413050365785690e+00  -8.0384113968135544e+00  -8.0332407464861184e+00  -8.0259158390259238e+00  -8.0166271559729054e+00  -8.0056195343602443e+00  -7.9931837648266750e+00  -7.9796481571136972e+00  -7.9653695288633877e+00  -7.9507236246152306e+00  -7.9360951295024815e+00  -7.9218674994930183e+00  -7.9084128502421391e+00  -7.8960821550747280e+00  -7.8851960048490000e+00  -7.8760361493226458e+00  -7.8688377705347961e+00  -7.8637809665403680e+00  -7.8609731927546171e+00  -7.8603880813675975e+00  -8.0445478478477490e+00  -8.0440236167840400e+00  -8.0410637221601515e+00  -8.0357371178700134e+00  -8.0281909261520905e+00  -8.0186253836624992e+00  -8.0072927191400218e+00  -7.9944915483548282e+00  -7.9805590443196417e+00  -7.9658618265429055e+00  -7.9507860940407662e+00  -7.9357273210463397e+00  -7.9210797707549458e+00  -7.9072260741204863e+00  -7.8945271279102389e+00  -7.8833125831409268e+00  -7.8738722217369368e+00  -7.8664485227786161e+00  -7.8612304200764100e+00  -7.8583454560782720e+00  -7.8578217047743397e+00  -8.0493236096340137e+00  -8.0488056418818292e+00  -8.0457351377159423e+00  -8.0401555109655423e+00  -8.0322288888905771e+00  -8.0221740128192298e+00  -8.0102599352715185e+00  -7.9968020557652153e+00  -7.9821551822932770e+00  -7.9667045847488307e+00  -7.9508559141337187e+00  -7.9350245178812990e+00  -7.9196245151649762e+00  -7.9050579359474771e+00  -7.8917042256683549e+00  -7.8799104589200635e+00  -7.8699826891063420e+00  -7.8621789050125237e+00  -7.8567033461179951e+00  -7.8536958897768514e+00  -7.8531719381830847e+00  -8.0561210010463267e+00  -8.0555884747240878e+00  -8.0523434935848446e+00  -8.0464073326964307e+00  -8.0379483852233626e+00  -8.0272042297531616e+00  -8.0144666663156112e+00  -8.0000756289968145e+00  -7.9844119623637386e+00  -7.9678882939994722e+00  -7.9509386009407361e+00  -7.9340070396905134e+00  -7.9175364701464872e+00  -7.9019570314523699e+00  -7.8876751171044424e+00  -7.8750631307687762e+00  -7.8644504411750553e+00  -7.8561157691294987e+00  -7.8502797049772539e+00  -7.8470879088442942e+00  -7.8465347098128353e+00  -8.0648966154581405e+00  -8.0643339483296828e+00  -8.0608480810043570e+00  -8.0544455519829636e+00  -8.0453010725200507e+00  -8.0336716148557556e+00  -8.0198756597309711e+00  -8.0042839914392498e+00  -7.9873110704867134e+00  -7.9694051031436732e+00  -7.9510369291495850e+00  -7.9326881632850910e+00  -7.9148390051799868e+00  -7.8979560862765057e+00  -7.8824807095983651e+00  -7.8688178460996356e+00  -7.8573262064223828e+00  -7.8483093063071951e+00  -7.8420054558664081e+00  -7.8385657807071718e+00  -7.8379675885148465e+00  -8.0756367878570234e+00  -8.0750307395623970e+00  -8.0712381900933323e+00  -8.0642565917593849e+00  -8.0542704503258591e+00  -8.0415589048644680e+00  -8.0264711863533602e+00  -8.0094146736912499e+00  -7.9908444298331061e+00  -7.9712519869149032e+00  -7.9511532025791363e+00  -7.9310754656496414e+00  -7.9115445949439538e+00  -7.8930717640670185e+00  -7.8761407761149034e+00  -7.8611960013309528e+00  -7.8486311934290134e+00  -7.8387788967474306e+00  -7.8318980006541308e+00  -7.8281478030460603e+00  -7.8274928017037579e+00  -8.0883514842607145e+00  -8.0876898025071515e+00  -8.0835253678684555e+00  -8.0758502270813466e+00  -8.0648631784570775e+00  -8.0508698302594137e+00  -8.0342550330435625e+00  -8.0154686277458698e+00  -7.9950130727781552e+00  -7.9734306759790066e+00  -7.9512901488321974e+00  -7.9291726553937236e+00  -7.9076576156561984e+00  -7.8873085282282354e+00  -7.8686590753019559e+00  -7.8521997616233401e+00  -7.8383652339061882e+00  -7.8275219036340076e+00  -7.8199532560242773e+00  -7.8158304677984738e+00  -7.8151080039965706e+00  -8.1030675224204298e+00  -8.1023382775527839e+00  -8.0977365778678312e+00  -8.0892514955647670e+00  -8.0771008468098699e+00  -8.0616219053064206e+00  -8.0432408019017583e+00  -8.0224561166419388e+00  -7.9998245761752891e+00  -7.9759465842876445e+00  -7.9514513001306240e+00  -7.9269813797243360e+00  -7.9031775566440992e+00  -7.8806632361260149e+00  -7.8600292814132349e+00  -7.8418191777479951e+00  -7.8265146811463575e+00  -7.8145215542614244e+00  -7.8061526489573199e+00  -7.8015950008810773e+00  -7.8007947485493725e+00  -8.1198213152371981e+00  -8.1190125295689661e+00  -8.1139072264365524e+00  -8.1044933149215570e+00  -8.0910124642352930e+00  -8.0738394257361410e+00  -8.0534479568606070e+00  -8.0303921350926633e+00  -8.0052900254511794e+00  -7.9788073963905184e+00  -7.9516412266349334e+00  -7.9245030795892939e+00  -7.8981024264271626e+00  -7.8731299722469448e+00  -7.8502410498260096e+00  -7.8300391852032387e+00  -7.8130599133515082e+00  -7.7997544533277985e+00  -7.7904703685912651e+00  -7.7854146857105331e+00  -7.7845263341843092e+00  -8.1386508658707886e+00  -8.1377502772603805e+00  -8.1320734552657647e+00  -8.1216087761064930e+00  -8.1066268580037146e+00  -8.0875463378768142e+00  -8.0648956057509498e+00  -8.0392914876891748e+00  -8.0114206674166972e+00  -7.9820214677085453e+00  -7.9518657581500118e+00  -7.9217410124876642e+00  -7.8924324654679676e+00  -7.8647052528018033e+00  -7.8392864337255448e+00  -7.8168468834142324e+00  -7.7979830928319238e+00  -7.7831984985415721e+00  -7.7728813163948205e+00  -7.7672629703087246e+00  -7.7662760793247179e+00  -8.1595866508427246e+00  -8.1585815453173360e+00  -8.1522632625889830e+00  -8.1406224295773661e+00  -8.1239642392981786e+00  -8.1027583754050276e+00  -8.0775956086818805e+00  -8.0491632787185310e+00  -8.0182241273682209e+00  -7.9855960092678444e+00  -7.9521322507906174e+00  -7.9187025822965698e+00  -7.8861743915151505e+00  -7.8553939254356386e+00  -7.8271670910430720e+00  -7.8022396591365926e+00  -7.7812768328054354e+00  -7.7648418129263188e+00  -7.7533701826081058e+00  -7.7471226872693277e+00  -7.7460266122965526e+00  -8.1826409777196414e+00  -8.1815180591760264e+00  -8.1744860241088269e+00  -8.1615400049707620e+00  -8.1430262937220483e+00  -8.1194738433732425e+00  -8.0915444920189987e+00  -8.0600044261591339e+00  -8.0256999438843852e+00  -7.9895349502302091e+00  -7.9524499293703190e+00  -7.9154021409493893e+00  -7.8793464713210870e+00  -7.8452161783060630e+00  -7.8139028006024400e+00  -7.7862347459310568e+00  -7.7629543787998587e+00  -7.7446932398542820e+00  -7.7319420937345704e+00  -7.7249967985581698e+00  -7.7237806490555858e+00  -8.2077953532508019e+00  -8.2065406279545030e+00  -8.1987199300884583e+00  -8.1843360004103687e+00  -8.1637841636825836e+00  -8.1376624066439458e+00  -8.1067135856536883e+00  -8.0717917329442788e+00  -8.0338341038449634e+00  -7.9938363278762523e+00  -7.9528303285032553e+00  -7.9118644553503197e+00  -7.8719847703867565e+00  -7.8342161454846542e+00  -7.7995418736018403e+00  -7.7688808547420187e+00  -7.7430619292628329e+00  -7.7227949646654821e+00  -7.7086353236367282e+00  -7.7009211295580311e+00  -7.6995737343900972e+00  -8.2349853402576318e+00  -8.2335839923757259e+00  -8.2248967752192783e+00  -8.2089385043113250e+00  -8.1861636206970196e+00  -8.1572511671208972e+00  -8.1230367233894167e+00  -8.0844719744596212e+00  -8.0425922020518588e+00  -7.9984890221688074e+00  -7.9532878537203420e+00  -7.9081290631217662e+00  -7.8641509914197369e+00  -7.8224726757438638e+00  -7.7841741360101988e+00  -7.7502725976371689e+00  -7.7216937991920078e+00  -7.6992379015226167e+00  -7.6835366336467414e+00  -7.6749796168470885e+00  -7.6734894683159869e+00  -8.2640823129179726e+00  -8.2625185373846985e+00  -8.2528834355849963e+00  -8.2352104908565238e+00  -8.2100265974827149e+00  -8.1781071921827877e+00  -8.1403947411268227e+00  -8.0979493799811237e+00  -8.0519107953893219e+00  -8.0034686245194830e+00  -7.9538404832676814e+00  -7.9042557686254433e+00  -7.8559423711605518e+00  -7.8101129225432242e+00  -7.7679472752390595e+00  -7.7305685604048415e+00  -7.6990112652482035e+00  -7.6741806059969715e+00  -7.6567999068566053e+00  -7.6473226705613566e+00  -7.6456778074706637e+00  -8.2948714327181072e+00  -8.2931281716673784e+00  -8.2824592304284241e+00  -8.2629266567917536e+00  -8.2351480655605851e+00  -8.2000154935146714e+00  -8.1585958861366148e+00  -8.1120698100294479e+00  -8.0616864817583842e+00  -8.0087322129410783e+00  -7.9545106278859015e+00  -7.9003315442020741e+00  -7.8475041481302084e+00  -7.7973295000639329e+00  -7.7510874821382583e+00  -7.7100140583546901e+00  -7.6752661245203724e+00  -7.6478726507091999e+00  -7.6286688802668774e+00  -7.6181893550818724e+00  -7.6163771256351653e+00  -8.3270250454625909e+00  -8.3250835388429909e+00  -8.3132881696197973e+00  -8.2917446194745033e+00  -8.2611869967761162e+00  -8.2226512647298673e+00  -8.1773511446420226e+00  -8.1266009008246627e+00  -8.0717622432123974e+00  -8.0142118159796016e+00  -7.9553261548531102e+00  -7.8964790746110429e+00  -7.8390451016702745e+00  -7.7844019944769949e+00  -7.7339254509604247e+00  -7.6889698280607961e+00  -7.6508302664793790e+00  -7.6206836591591989e+00  -7.5995049823763710e+00  -7.5879342420478153e+00  -7.5859408560996249e+00  -8.3600705110138538e+00  -8.3579095095157427e+00  -8.3448847797853212e+00  -8.3211689284178778e+00  -8.2876498223840063e+00  -8.2455449983885032e+00  -8.1962434719064490e+00  -8.1412075430770585e+00  -8.0819107203185574e+00  -8.0198064217441800e+00  -7.9563215560748732e+00  -7.8928670654902282e+00  -7.8308565179109637e+00  -7.7717235397568203e+00  -7.7169288665985700e+00  -7.6679481489988124e+00  -7.6262329252855983e+00  -7.5931395839259102e+00  -7.5698216061639236e+00  -7.5570600292597314e+00  -7.5548697601702184e+00  -8.3933511572172552e+00  -8.3909455328549800e+00  -8.3765716824711021e+00  -8.3505057708944346e+00  -8.3138443860610991e+00  -8.2680389912874404e+00  -8.2146901067033689e+00  -8.1554224406021802e+00  -8.0918144570008170e+00  -8.0253725902926636e+00  -7.9575391853006527e+00  -7.8897221419872281e+00  -7.8233345195879451e+00  -7.7598328058602375e+00  -7.7007423858698951e+00  -7.6476581045351821e+00  -7.6022077869775826e+00  -7.5659684372323825e+00  -7.5403266922188728e+00  -7.5262574307343479e+00  -7.5238512477803203e+00  -8.4259784704493192e+00  -8.4232967451987015e+00  -8.4074261661769523e+00  -8.3788053282877453e+00  -8.3388218813636232e+00  -8.2892338814423869e+00  -8.2318978405837715e+00  -8.1686124326375733e+00  -8.1010439841460258e+00  -8.0307141621888292e+00  -7.9590303872583474e+00  -7.8873415498701647e+00  -7.8170047623576675e+00  -7.7494508150046606e+00  -7.6862355551253660e+00  -7.6290617552368118e+00  -7.5797528198417314e+00  -7.5401587131923344e+00  -7.5119764694348561e+00  -7.4964545909979590e+00  -7.4938078699948125e+00  -8.4567725473795647e+00  -8.4537724182686791e+00  -8.4362112463076642e+00  -8.4047872168417666e+00  -8.3613037584365220e+00  -8.3079246278855035e+00  -8.2468128036050850e+00  -8.1799432292216760e+00  -8.1090362214143799e+00  -8.0355723755142439e+00  -7.9608561661637776e+00  -7.8861047318605415e+00  -7.8125466688100023e+00  -7.7415199936287209e+00  -7.6745575988890282e+00  -7.6134425967345143e+00  -7.5602065954212119e+00  -7.5170355037710621e+00  -7.4860450146345556e+00  -7.4688796908969808e+00  -7.4659584130196111e+00  -8.4841857405167538e+00  -8.4808056798068598e+00  -8.4612833161792622e+00  -8.4267419657701570e+00  -8.3795904538354211e+00  -8.3225276061124749e+00  -8.2580699516941269e+00  -8.1883489197327037e+00  -8.1150785012056534e+00  -8.0396190915574870e+00  -7.9630867696475196e+00  -7.8864799385937125e+00  -7.8108111086218521e+00  -7.7372389513715261e+00  -7.6671945911339972e+00  -7.6024860559606173e+00  -7.5453458292508566e+00  -7.4983623627630633e+00  -7.4642178043855374e+00  -7.4451431818184117e+00  -7.4418975760726092e+00  -8.5062003351672697e+00  -8.5023428243163153e+00  -8.4804617598096748e+00  -8.4423977350251302e+00  -8.3914502775012210e+00  -8.3310061112079694e+00  -8.2639545776443271e+00  -8.1925190151861944e+00  -8.1183079687249151e+00  -8.0424579172000517e+00  -7.9657992032857763e+00  -7.8890191788913837e+00  -7.8128201615390518e+00  -7.7380794165412796e+00  -7.6660173435170158e+00  -7.5983671415125498e+00  -7.5375091431077914e+00  -7.4864821931591159e+00  -7.4487244850498566e+00  -7.4273517330583019e+00  -7.4237053756316280e+00  -8.5201829349815679e+00  -8.5156778159216735e+00  -8.4908324395671038e+00  -8.4487371047932260e+00  -8.3939935213829102e+00  -8.3308143760790490e+00  -8.2624011916760747e+00  -8.1909257018392250e+00  -8.1177421654828716e+00  -8.0436406470714736e+00  -7.9690713319840167e+00  -7.8943312658243414e+00  -7.8197301564917394e+00  -7.7457601011242865e+00  -7.6732941260411742e+00  -7.6038284085342829e+00  -7.5397488216346407e+00  -7.4845188330593944e+00  -7.4425408085181566e+00  -7.4182781650361287e+00  -7.4141083945026178e+00  -8.5226615324116697e+00  -8.5171763413409423e+00  -8.4884309488785430e+00  -8.4417491475706061e+00  -8.3835586282019161e+00  -8.3189073763520316e+00  -8.2510766167683229e+00  -8.1819269297563597e+00  -8.1123628201819553e+00  -8.0427087016780554e+00  -7.9729710974378634e+00  -7.9030197906656525e+00  -7.8327310368312126e+00  -7.7621355825606493e+00  -7.6916161169277810e+00  -7.6222021554869608e+00  -7.5559958968494954e+00  -7.4966717463427628e+00  -7.4497216182822514e+00  -7.4216402338386933e+00  -7.4167401629570646e+00  -8.5089539388280180e+00  -8.5017506088298891e+00  -8.4677084679066592e+00  -8.4161303180720761e+00  -8.3556976276597705e+00  -8.2919157197144049e+00  -8.2276237359752606e+00  -8.1639921182432058e+00  -8.1012765667019089e+00  -8.0392685688930037e+00  -7.9775397302965843e+00  -7.9155736998940656e+00  -7.8528516181832835e+00  -7.7889410852973597e+00  -7.7236416456234984e+00  -7.6572641397629813e+00  -7.5911625523567299e+00  -7.5286335205084649e+00  -7.4759977963672020e+00  -7.4426164382599973e+00  -7.4366125521617441e+00  -8.4724608396332250e+00  -8.4617174961708930e+00  -8.4206550273278413e+00  -8.3650836702144922e+00  -8.3054930235582027e+00  -8.2466668946012582e+00  -8.1901664880989760e+00  -8.1360915058937806e+00  -8.0839630001316181e+00  -8.0331013662229029e+00  -7.9827679877928226e+00  -7.9322071806528118e+00  -7.8806525409634123e+00  -7.8273335379734332e+00  -7.7715201197070449e+00  -7.7126788136832154e+00  -7.6509108292700230e+00  -7.5880464472618865e+00  -7.5299092045953540e+00  -7.4889584995307210e+00  -7.4811032246740341e+00  -8.4028994449999548e+00  -8.3841136733739035e+00  -8.3356905285133855e+00  -8.2808268598614365e+00  -8.2287146051024465e+00  -8.1813050700040701e+00  -8.1381445344406895e+00  -8.0982329253217333e+00  -8.0605730319131741e+00  -8.0242792289409337e+00  -7.9885588569203634e+00  -7.9526624025739565e+00  -7.9158270928491188e+00  -7.8772178217964495e+00  -7.8358684334418367e+00  -7.7906463072767371e+00  -7.7403434013176673e+00  -7.6842801637157621e+00  -7.6247330601821393e+00  -7.5739187974924391e+00  -7.5624290311498941e+00  -8.2795396099258003e+00  -8.2446825856898620e+00  -8.1980430852954456e+00  -8.1575696317353472e+00  -8.1245891863366015e+00  -8.0971121931357644e+00  -8.0733229188161193e+00  -8.0519512972093299e+00  -8.0321199086551953e+00  -8.0131849537274871e+00  -7.9946279563153890e+00  -7.9759818192926577e+00  -7.9567715175659517e+00  -7.9364526788967584e+00  -7.9143296175971312e+00  -7.8894255029921840e+00  -7.8602639649851955e+00  -7.8245555409181993e+00  -7.7792496863515419e+00  -7.7250920033254511e+00  -7.7058279290091871e+00  -8.0000000000000000e+00  -8.0000000000000000e+00  -8.0000000000000000e+00  -8.0000000000000000e+00  -8.0000000000000000e+00  -8.0000000000000000e+00  -8.0000000000000000e+00  -8.0000000000000000e+00  -8.0000000000000000e+00  -8.0000000000000000e+00  -8.0000000000000000e+00  -8.0000000000000000e+00  -8.0000000000000000e+00  -8.0000000000000000e+00  -8.0000000000000000e+00  -8.0000000000000000e+00  -8.0000000000000000e+00  -8.0000000000000000e+00  -8.0000000000000000e+00  -8.0000000000000000e+00  -8.0000000000000000e+00  </DataArray> 
</PointData> 
</Piece>
</UnstructuredGrid>
</VTKFile>