<?xml version="1.0"?>
<VTKFile type="UnstructuredGrid"  version="0.1"  >
<UnstructuredGrid>
<Piece  NumberOfPoints="651" NumberOfCells="1200">
<Points>
<DataArray  type="Float64"  NumberOfComponents="3"  format="ascii">0 0 0  50000 0 0  100000 0 0  150000 0 0  200000 0 0  250000 0 0  300000 0 0  350000 0 0  400000 0 0  450000 0 0  500000 0 0  550000 0 0  600000 0 0  650000 0 0  700000 0 0  750000 0 0  800000 0 0  850000 0 0  900000 0 0  950000 0 0  1000000 0 0  0 50000 0  50000 50000 0  100000 50000 0  150000 50000 0  200000 50000 0  250000 50000 0  300000 50000 0  350000 50000 0  400000 50000 0  450000 50000 0  500000 50000 0  550000 50000 0  600000 50000 0  650000 50000 0  700000 50000 0  750000 50000 0  800000 50000 0  850000 50000 0  900000 50000 0  950000 50000 0  1000000 50000 0  0 100000 0  50000 100000 0  100000 100000 0  150000 100000 0  200000 100000 0  250000 100000 0  300000 100000 0  350000 100000 0  400000 100000 0  450000 100000 0  500000 100000 0  550000 100000 0  600000 100000 0  650000 100000 0  700000 100000 0  750000 100000 0  800000 100000 0  850000 100000 0  900000 100000 0  950000 100000 0  1000000 100000 0  0 150000 0  50000 150000 0  100000 150000 0  150000 150000 0  200000 150000 0  250000 150000 0  300000 150000 0  350000 150000 0  400000 150000 0  450000 150000 0  500000 150000 0  550000 150000 0  600000 150000 0  650000 150000 0  700000 150000 0  750000 150000 0  800000 150000 0  850000 150000 0  900000 150000 0  950000 150000 0  1000000 150000 0  0 200000 0  50000 200000 0  100000 200000 0  150000 200000 0  200000 200000 0  250000 200000 0  300000 200000 0  350000 200000 0  400000 200000 0  450000 200000 0  500000 200000 0  550000 200000 0  600000 200000 0  650000 200000 0  700000 200000 0  750000 200000 0  800000 200000 0  850000 200000 0  900000 200000 0  950000 200000 0  1000000 200000 0  0 250000 0  50000 250000 0  100000 250000 0  150000 250000 0  200000 250000 0  250000 250000 0  300000 250000 0  350000 250000 0  400000 250000 0  450000 250000 0  500000 250000 0  550000 250000 0  600000 250000 0  650000 250000 0  700000 250000 0  750000 250000 0  800000 250000 0  850000 250000 0  900000 250000 0  950000 250000 0  1000000 250000 0  0 300000 0  50000 300000 0  100000 300000 0  150000 300000 0  200000 300000 0  250000 300000 0  300000 300000 0  350000 300000 0  400000 300000 0  450000 300000 0  500000 300000 0  550000 300000 0  600000 300000 0  650000 300000 0  700000 300000 0  750000 300000 0  800000 300000 0  850000 300000 0  900000 300000 0  950000 300000 0  1000000 300000 0  0 350000 0  50000 350000 0  100000 350000 0  150000 350000 0  200000 350000 0  250000 350000 0  300000 350000 0  350000 350000 0  400000 350000 0  450000 350000 0  500000 350000 0  550000 350000 0  600000 350000 0  650000 350000 0  700000 350000 0  750000 350000 0  800000 350000 0  850000 350000 0  900000 350000 0  950000 350000 0  1000000 350000 0  0 400000 0  50000 400000 0  100000 400000 0  150000 400000 0  200000 400000 0  250000 400000 0  300000 400000 0  350000 400000 0  400000 400000 0  450000 400000 0  500000 400000 0  550000 400000 0  600000 400000 0  650000 400000 0  700000 400000 0  750000 400000 0  800000 400000 0  850000 400000 0  900000 400000 0  950000 400000 0  1000000 400000 0  0 450000 0  50000 450000 0  100000 450000 0  150000 450000 0  200000 450000 0  250000 450000 0  300000 450000 0  350000 450000 0  400000 450000 0  450000 450000 0  500000 450000 0  550000 450000 0  600000 450000 0  650000 450000 0  700000 450000 0  750000 450000 0  800000 450000 0  850000 450000 0  900000 450000 0  950000 450000 0  1000000 450000 0  0 500000 0  50000 500000 0  100000 500000 0  150000 500000 0  200000 500000 0  250000 500000 0  300000 500000 0  350000 500000 0  400000 500000 0  450000 500000 0  500000 500000 0  550000 500000 0  600000 500000 0  650000 500000 0  700000 500000 0  750000 500000 0  800000 500000 0  850000 500000 0  900000 500000 0  950000 500000 0  1000000 500000 0  0 550000 0  50000 550000 0  100000 550000 0  150000 550000 0  200000 550000 0  250000 550000 0  300000 550000 0  350000 550000 0  400000 550000 0  450000 550000 0  500000 550000 0  550000 550000 0  600000 550000 0  650000 550000 0  700000 550000 0  750000 550000 0  800000 550000 0  850000 550000 0  900000 550000 0  950000 550000 0  1000000 550000 0  0 600000 0  50000 600000 0  100000 600000 0  150000 600000 0  200000 600000 0  250000 600000 0  300000 600000 0  350000 600000 0  400000 600000 0  450000 600000 0  500000 600000 0  550000 600000 0  600000 600000 0  650000 600000 0  700000 600000 0  750000 600000 0  800000 600000 0  850000 600000 0  900000 600000 0  950000 600000 0  1000000 600000 0  0 650000 0  50000 650000 0  100000 650000 0  150000 650000 0  200000 650000 0  250000 650000 0  300000 650000 0  350000 650000 0  400000 650000 0  450000 650000 0  500000 650000 0  550000 650000 0  600000 650000 0  650000 650000 0  700000 650000 0  750000 650000 0  800000 650000 0  850000 650000 0  900000 650000 0  950000 650000 0  1000000 650000 0  0 700000 0  50000 700000 0  100000 700000 0  150000 700000 0  200000 700000 0  250000 700000 0  300000 700000 0  350000 700000 0  400000 700000 0  450000 700000 0  500000 700000 0  550000 700000 0  600000 700000 0  650000 700000 0  700000 700000 0  750000 700000 0  800000 700000 0  850000 700000 0  900000 700000 0  950000 700000 0  1000000 700000 0  0 750000 0  50000 750000 0  100000 750000 0  150000 750000 0  200000 750000 0  250000 750000 0  300000 750000 0  350000 750000 0  400000 750000 0  450000 750000 0  500000 750000 0  550000 750000 0  600000 750000 0  650000 750000 0  700000 750000 0  750000 750000 0  800000 750000 0  850000 750000 0  900000 750000 0  950000 750000 0  1000000 750000 0  0 800000 0  50000 800000 0  100000 800000 0  150000 800000 0  200000 800000 0  250000 800000 0  300000 800000 0  350000 800000 0  400000 800000 0  450000 800000 0  500000 800000 0  550000 800000 0  600000 800000 0  650000 800000 0  700000 800000 0  750000 800000 0  800000 800000 0  850000 800000 0  900000 800000 0  950000 800000 0  1000000 800000 0  0 850000 0  50000 850000 0  100000 850000 0  150000 850000 0  200000 850000 0  250000 850000 0  300000 850000 0  350000 850000 0  400000 850000 0  450000 850000 0  500000 850000 0  550000 850000 0  600000 850000 0  650000 850000 0  700000 850000 0  750000 850000 0  800000 850000 0  850000 850000 0  900000 850000 0  950000 850000 0  1000000 850000 0  0 900000 0  50000 900000 0  100000 900000 0  150000 900000 0  200000 900000 0  250000 900000 0  300000 900000 0  350000 900000 0  400000 900000 0  450000 900000 0  500000 900000 0  550000 900000 0  600000 900000 0  650000 900000 0  700000 900000 0  750000 900000 0  800000 900000 0  850000 900000 0  900000 900000 0  950000 900000 0  1000000 900000 0  0 950000 0  50000 950000 0  100000 950000 0  150000 950000 0  200000 950000 0  250000 950000 0  300000 950000 0  350000 950000 0  400000 950000 0  450000 950000 0  500000 950000 0  550000 950000 0  600000 950000 0  650000 950000 0  700000 950000 0  750000 950000 0  800000 950000 0  850000 950000 0  900000 950000 0  950000 950000 0  1000000 950000 0  0 1000000 0  50000 1000000 0  100000 1000000 0  150000 1000000 0  200000 1000000 0  250000 1000000 0  300000 1000000 0  350000 1000000 0  400000 1000000 0  450000 1000000 0  500000 1000000 0  550000 1000000 0  600000 1000000 0  650000 1000000 0  700000 1000000 0  750000 1000000 0  800000 1000000 0  850000 1000000 0  900000 1000000 0  950000 1000000 0  1000000 1000000 0  0 1050000 0  50000 1050000 0  100000 1050000 0  150000 1050000 0  200000 1050000 0  250000 1050000 0  300000 1050000 0  350000 1050000 0  400000 1050000 0  450000 1050000 0  500000 1050000 0  550000 1050000 0  600000 1050000 0  650000 1050000 0  700000 1050000 0  750000 1050000 0  800000 1050000 0  850000 1050000 0  900000 1050000 0  950000 1050000 0  1000000 1050000 0  0 1100000 0  50000 1100000 0  100000 1100000 0  150000 1100000 0  200000 1100000 0  250000 1100000 0  300000 1100000 0  350000 1100000 0  400000 1100000 0  450000 1100000 0  500000 1100000 0  550000 1100000 0  600000 1100000 0  650000 1100000 0  700000 1100000 0  750000 1100000 0  800000 1100000 0  850000 1100000 0  900000 1100000 0  950000 1100000 0  1000000 1100000 0  0 1150000 0  50000 1150000 0  100000 1150000 0  150000 1150000 0  200000 1150000 0  250000 1150000 0  300000 1150000 0  350000 1150000 0  400000 1150000 0  450000 1150000 0  500000 1150000 0  550000 1150000 0  600000 1150000 0  650000 1150000 0  700000 1150000 0  750000 1150000 0  800000 1150000 0  850000 1150000 0  900000 1150000 0  950000 1150000 0  1000000 1150000 0  0 1200000 0  50000 1200000 0  100000 1200000 0  150000 1200000 0  200000 1200000 0  250000 1200000 0  300000 1200000 0  350000 1200000 0  400000 1200000 0  450000 1200000 0  500000 1200000 0  550000 1200000 0  600000 1200000 0  650000 1200000 0  700000 1200000 0  750000 1200000 0  800000 1200000 0  850000 1200000 0  900000 1200000 0  950000 1200000 0  1000000 1200000 0  0 1250000 0  50000 1250000 0  100000 1250000 0  150000 1250000 0  200000 1250000 0  250000 1250000 0  300000 1250000 0  350000 1250000 0  400000 1250000 0  450000 1250000 0  500000 1250000 0  550000 1250000 0  600000 1250000 0  650000 1250000 0  700000 1250000 0  750000 1250000 0  800000 1250000 0  850000 1250000 0  900000 1250000 0  950000 1250000 0  1000000 1250000 0  0 1300000 0  50000 1300000 0  100000 1300000 0  150000 1300000 0  200000 1300000 0  250000 1300000 0  300000 1300000 0  350000 1300000 0  400000 1300000 0  450000 1300000 0  500000 1300000 0  550000 1300000 0  600000 1300000 0  650000 1300000 0  700000 1300000 0  750000 1300000 0  800000 1300000 0  850000 1300000 0  900000 1300000 0  950000 1300000 0  1000000 1300000 0  0 1350000 0  50000 1350000 0  100000 1350000 0  150000 1350000 0  200000 1350000 0  250000 1350000 0  300000 1350000 0  350000 1350000 0  400000 1350000 0  450000 1350000 0  500000 1350000 0  550000 1350000 0  600000 1350000 0  650000 1350000 0  700000 135
[...]
<PointData  Vectors="f_1505"> 
<DataArray  type="Float64"  Name="f_1505"  NumberOfComponents="3" format="ascii">-8.2278472643366381e-11 6.5945295727417636e-11 0.0000000000000000e+00  -1.5050775825541584e-10 5.2469295562998513e-11 0.0000000000000000e+00  -2.7202501945406931e-10 4.6511099921847689e-11 0.0000000000000000e+00  -3.8950641224809303e-10 4.1387798556878061e-11 0.0000000000000000e+00  -4.9708032042712420e-10 3.5612713245392650e-11 0.0000000000000000e+00  -5.9161152880747292e-10 2.8982785363286417e-11 0.0000000000000000e+00  -6.7055451649136537e-10 2.1541702546461159e-11 0.0000000000000000e+00  -7.3185228977788916e-10 1.3421293763776597e-11 0.0000000000000000e+00  -7.7393328992595297e-10 4.8002479125812409e-12 0.0000000000000000e+00  -7.9573845548843178e-10 -4.1153145625439896e-12 0.0000000000000000e+00  -7.9674378217367407e-10 -1.3103855827075156e-11 0.0000000000000000e+00  -7.7697118859086979e-10 -2.1937510905119933e-11 0.0000000000000000e+00  -7.3698629306158929e-10 -3.0390031562747795e-11 0.0000000000000000e+00  -6.7788308338699846e-10 -3.8244536551668978e-11 0.0000000000000000e+00  -6.0125821230498059e-10 -4.5302268884436567e-11 0.0000000000000000e+00  -5.0919164571318444e-10 -5.1396039446734405e-11 0.0000000000000000e+00  -4.0432097541458975e-10 -5.6421516901058582e-11 0.0000000000000000e+00  -2.9040836924753552e-10 -6.0422624078774063e-11 0.0000000000000000e+00  -1.7501762844674532e-10 -6.3513541271226427e-11 0.0000000000000000e+00  -8.0869643934203924e-11 -6.1250314724375991e-11 0.0000000000000000e+00  -4.1137757198664928e-11 -4.0430493671105244e-11 0.0000000000000000e+00  -7.0527389374795819e-11 1.2889115811912367e-10 0.0000000000000000e+00  -1.2365738073077791e-10 1.1899472149810169e-10 0.0000000000000000e+00  -2.1832903677962540e-10 1.2384613106968398e-10 0.0000000000000000e+00  -3.2490713982297326e-10 1.1780288243905511e-10 0.0000000000000000e+00  -4.2672111964584647e-10 1.0703962121815315e-10 0.0000000000000000e+00  -5.1834521854792722e-10 9.2937105605737080e-11 0.0000000000000000e+00  -5.9682919922530012e-10 7.6187383310076490e-11 0.0000000000000000e+00  -6.5993854958940300e-10 5.7347599674163791e-11 0.0000000000000000e+00  -7.0595690689430355e-10 3.6962663587836213e-11 0.0000000000000000e+00  -7.3367089026505736e-10 1.5592240748613853e-11 0.0000000000000000e+00  -7.4237595380282982e-10 -6.1895050426067456e-12 0.0000000000000000e+00  -7.3188289014750275e-10 -2.7802671112647069e-11 0.0000000000000000e+00  -7.0251822379280705e-10 -4.8672987224842913e-11 0.0000000000000000e+00  -6.5511663005059832e-10 -6.8243372907181615e-11 0.0000000000000000e+00  -5.9100768151385438e-10 -8.5983719301335478e-11 0.0000000000000000e+00  -5.1200833282616914e-10 -1.0139535296553511e-10 0.0000000000000000e+00  -4.2046710942789112e-10 -1.1399724351830429e-10 0.0000000000000000e+00  -3.1955964454049259e-10 -1.2321655572080774e-10 0.0000000000000000e+00  -2.1467978306608598e-10 -1.2770811573184385e-10 0.0000000000000000e+00  -1.1912757359931574e-10 -1.2232993173444224e-10 0.0000000000000000e+00  -6.3747533413455531e-11 -7.7306061298261616e-11 0.0000000000000000e+00  -6.9637464760915937e-11 2.4032204994109320e-10 0.0000000000000000e+00  -1.2603037992614742e-10 2.1375269191769973e-10 0.0000000000000000e+00  -2.1563422861400549e-10 2.1823909969353205e-10 0.0000000000000000e+00  -3.1286198198018966e-10 2.0926295507560039e-10 0.0000000000000000e+00  -4.0649282319364059e-10 1.9164911056125057e-10 0.0000000000000000e+00  -4.9152702152136477e-10 1.6766483805956686e-10 0.0000000000000000e+00  -5.6472606827547767e-10 1.3870473621810692e-10 0.0000000000000000e+00  -6.2378388025907018e-10 1.0586532067172979e-10 0.0000000000000000e+00  -6.6699008668796074e-10 7.0168218826878828e-11 0.0000000000000000e+00  -6.9314959277212849e-10 3.2633145477252589e-11 0.0000000000000000e+00  -7.0156894622373332e-10 -5.7074198584309566e-12 0.0000000000000000e+00  -6.9205430041762594e-10 -4.3815573625062184e-11 0.0000000000000000e+00  -6.6490836888044900e-10 -8.0662905267407833e-11 0.0000000000000000e+00  -6.2092329233790486e-10 -1.1524614657386029e-10 0.0000000000000000e+00  -5.6137107492281798e-10 -1.4659776780742188e-10 0.0000000000000000e+00  -4.8800160713624541e-10 -1.7378148539163904e-10 0.0000000000000000e+00  -4.0308524902191552e-10 -1.9584688804963137e-10 0.0000000000000000e+00  -3.0963664022256070e-10 -2.1167063327276632e-10 0.0000000000000000e+00  -2.1233586032604797e-10 -2.1949281750864553e-10 0.0000000000000000e+00  -1.2190625393670111e-10 -2.1579128083766999e-10 0.0000000000000000e+00  -6.6973296989951125e-11 -1.6395374715644318e-10 0.0000000000000000e+00  -7.2236514392371745e-11 3.4994513436711471e-10 0.0000000000000000e+00  -1.2591262869641721e-10 3.1653480345314438e-10 0.0000000000000000e+00  -2.1399047977403891e-10 3.1591762727084720e-10 0.0000000000000000e+00  -3.0759424009177051e-10 3.0233593493179761e-10 0.0000000000000000e+00  -3.9664330759113120e-10 2.7747200660230464e-10 0.0000000000000000e+00  -4.7724983700049234e-10 2.4347337025543845e-10 0.0000000000000000e+00  -5.4665494816734909e-10 2.0213585244564110e-10 0.0000000000000000e+00  -6.0268338643340993e-10 1.5503718090602526e-10 0.0000000000000000e+00  -6.4367404240410203e-10 1.0368393575583114e-10 0.0000000000000000e+00  -6.6845981961262182e-10 4.9577705601525255e-11 0.0000000000000000e+00  -6.7636093060177952e-10 -5.7680511504784167e-12 0.0000000000000000e+00  -6.6718226664269924e-10 -6.0836037878831941e-11 0.0000000000000000e+00  -6.4120864212154213e-10 -1.1412369817870842e-10 0.0000000000000000e+00  -5.9919544656633808e-10 -1.6416385796530882e-10 0.0000000000000000e+00  -5.4235464932718879e-10 -2.0954066775752806e-10 0.0000000000000000e+00  -4.7234033307865764e-10 -2.4889259195940001e-10 0.0000000000000000e+00  -3.9125444921765588e-10 -2.8089103326855232e-10 0.0000000000000000e+00  -3.0177371391000460e-10 -3.0418711521991122e-10 0.0000000000000000e+00  -2.0791289050703541e-10 -3.1731664473520195e-10 0.0000000000000000e+00  -1.1964019479857144e-10 -3.1809149263134285e-10 0.0000000000000000e+00  -6.7256951358999022e-11 -2.6924281318646267e-10 0.0000000000000000e+00  -7.6656578965684858e-11 4.5721332882391844e-10 0.0000000000000000e+00  -1.2629935082801190e-10 4.1975582920324127e-10 0.0000000000000000e+00  -2.1347281622713205e-10 4.1361881675897260e-10 0.0000000000000000e+00  -3.0594252425686281e-10 3.9411446849527027e-10 0.0000000000000000e+00  -3.9314441841354450e-10 3.6154484201924732e-10 0.0000000000000000e+00  -4.7157107292645206e-10 3.1757227396760195e-10 0.0000000000000000e+00  -5.3885495473454947e-10 2.6411509855725831e-10 0.0000000000000000e+00  -5.9305295350883641e-10 2.0310128287383640e-10 0.0000000000000000e+00  -6.3261942219318030e-10 1.3646686190265432e-10 0.0000000000000000e+00  -6.5644343198227582e-10 6.6171441683257223e-11 0.0000000000000000e+00  -6.6387067899926111e-10 -5.8034569093099055e-12 0.0000000000000000e+00  -6.5471072812861031e-10 -7.7471588118911340e-11 0.0000000000000000e+00  -6.2923442697985542e-10 -1.4686799391575581e-10 0.0000000000000000e+00  -5.8816278782613656e-10 -2.1207815408287214e-10 0.0000000000000000e+00  -5.3264705608233639e-10 -2.7126605731026695e-10 0.0000000000000000e+00  -4.6424170462189015e-10 -3.2269894240563397e-10 0.0000000000000000e+00  -3.8489032582751960e-10 -3.6477233415182671e-10 0.0000000000000000e+00  -2.9704756885031904e-10 -3.9605371595073399e-10 0.0000000000000000e+00  -2.0457191040371954e-10 -4.1531740210236511e-10 0.0000000000000000e+00  -1.1787181935270097e-10 -4.2077372378469196e-10 0.0000000000000000e+00  -6.9433370167501547e-11 -3.7553308697090839e-10 0.0000000000000000e+00  -8.2593462456032831e-11 5.6346187380802107e-10 0.0000000000000000e+00  -1.2795081260755732e-10 5.2288321132542995e-10 0.0000000000000000e+00  -2.1470827305426747e-10 5.1160488031528330e-10 0.0000000000000000e+00  -3.0732846694576315e-10 4.8556625278844244e-10 0.0000000000000000e+00  -3.9437772525059709e-10 4.4477617422463130e-10 0.0000000000000000e+00  -4.7227722053736338e-10 3.9062223378641093e-10 0.0000000000000000e+00  -5.3882182071200993e-10 3.2506528538231319e-10 0.0000000000000000e+00  -5.9223686439593565e-10 2.5028934816240288e-10 0.0000000000000000e+00  -6.3109306708248007e-10 1.6859871464407983e-10 0.0000000000000000e+00  -6.5434907004392351e-10 8.2374425410250136e-11 0.0000000000000000e+00  -6.6138712810201616e-10 -5.9576879507223995e-12 0.0000000000000000e+00  -6.5202953746190278e-10 -9.3961050599116633e-11 0.0000000000000000e+00  -6.2654004346146307e-10 -1.7922639805187926e-10 0.0000000000000000e+00  -5.8561322536278415e-10 -2.5941292058851896e-10 0.0000000000000000e+00  -5.3035276912632415e-10 -3.3229201334805159e-10 0.0000000000000000e+00  -4.6224252323280852e-10 -3.9579571379788014e-10 0.0000000000000000e+00  -3.8313962930788174e-10 -4.4807738771123806e-10 0.0000000000000000e+00  -2.9544564291039679e-10 -4.8759547113898028e-10 0.0000000000000000e+00  -2.0317489305218314e-10 -5.1313955046339538e-10 0.0000000000000000e+00  -1.1751442998590531e-10 -5.2286383150486807e-10 0.0000000000000000e+00  -7.3280388176608446e-11 -4.8023653113142347e-10 0.0000000000000000e+00  -8.9940812589122109e-11 6.6990009368557624e-10 0.0000000000000000e+00  -1.3089603306364598e-10 6.2658135649518372e-10 0.0000000000000000e+00  -2.1772706195799505e-10 6.1052720530494574e-10 0.0000000000000000e+00  -3.1130639437701104e-10 5.7775246784544632e-10 0.0000000000000000e+00  -3.9923686189694014e-10 5.2834329175027554e-10 0.0000000000000000e+00  -4.7769443324389074e-10 4.6368126745815676e-10 0.0000000000000000e+00  -5.4447803155606826e-10 3.8582730980867831e-10 0.0000000000000000e+00  -5.9789158997530260e-10 2.9720103928309916e-10 0.0000000000000000e+00  -6.3658787759194886e-10 2.0044050449067091e-10 0.0000000000000000e+00  -6.5958803092799698e-10 9.8318392256720174e-11 0.0000000000000000e+00  -6.6631403298821303e-10 -6.3186778837011661e-12 0.0000000000000000e+00  -6.5660722778913031e-10 -1.1060329582818999e-10 0.0000000000000000e+00  -6.3073234529166508e-10 -2.1169941500455527e-10 0.0000000000000000e+00  -5.8936935103521964e-10 -3.0685660040903101e-10 0.0000000000000000e+00  -5.3359504568667866e-10 -3.9346885040036594e-10 0.0000000000000000e+00  -4.6486156995278918e-10 -4.6914154772583810e-10 0.0000000000000000e+00  -3.8501020797572469e-10 -5.3177149625211865e-10 0.0000000000000000e+00  -2.9649973124695130e-10 -5.7963778404477021e-10 0.0000000000000000e+00  -2.0362663604211579e-10 -6.1139441036942858e-10 0.0000000000000000e+00  -1.1847610517139457e-10 -6.2499664678919741e-10 0.0000000000000000e+00  -7.8582148860114952e-11 -5.8396165527900559e-10 0.0000000000000000e+00  -9.8653289765323861e-11 7.7743545619350124e-10 0.0000000000000000e+00  -1.3492281854529865e-10 7.3157552762957521e-10 0.0000000000000000e+00  -2.2216406778616971e-10 7.1099858081188967e-10 0.0000000000000000e+00  -3.1720466617950656e-10 6.7140747488025277e-10 0.0000000000000000e+00  -4.0660957335745316e-10 6.1308082683514493e-10 0.0000000000000000e+00  -4.8625418510151479e-10 5.3755806918568374e-10 0.0000000000000000e+00  -5.5386544586268977e-10 4.4709021451027199e-10 0.0000000000000000e+00  -6.0776466503122780e-10 3.4435898266986945e-10 0.0000000000000000e+00  -6.4665230768757647e-10 2.3233186768676690e-10 0.0000000000000000e+00  -6.6959874516836159e-10 1.1415808333682702e-10 0.0000000000000000e+00  -6.7606402364446726e-10 -6.9124804800890105e-12 0.0000000000000000e+00  -6.6591209038175898e-10 -1.2759839410940280e-10 0.0000000000000000e+00  -6.3941508139912054e-10 -2.4465138775595704e-10 0.0000000000000000e+00  -5.9724861252839220e-10 -3.5492196693204040e-10 0.0000000000000000e+00  -5.4048023292397104e-10 -4.5543023833803159e-10 0.0000000000000000e+00  -4.7056017271891683e-10 -5.4344554360735658e-10 0.0000000000000000e+00  -3.8935846106287389e-10 -6.1657645899553329e-10 0.0000000000000000e+00  -2.9944450680620916e-10 -6.7286093876140523e-10 0.0000000000000000e+00  -2.0544670853036449e-10 -7.1073938311293490e-10 0.0000000000000000e+00  -1.2045569330968505e-10 -7.2793545525838878e-10 0.0000000000000000e+00  -8.5253512415923280e-11 -6.8771428859948725e-10 0.0000000000000000e+00  -1.0871848527492568e-10 8.8659443222631962e-10 0.0000000000000000e+00  -1.3971131035503008e-10 8.3837419314567959e-10 0.0000000000000000e+00  -2.2742893332934481e-10 8.1341861558337109e-10 0.0000000000000000e+00  -3.2412007808092346e-10 7.6693539091042815e-10 0.0000000000000000e+00  -4.1521949154741462e-10 6.9943239745600362e-10 0.0000000000000000e+00  -4.9628500988688011e-10 6.1269768463472344e-10 0.0000000000000000e+00  -5.6494751079505475e-10 5.0924972103563547e-10 0.0000000000000000e+00  -6.1951987457110934e-10 3.9207472188787525e-10 0.0000000000000000e+00  -6.5873313985814451e-10 2.6448378163325704e-10 0.0000000000000000e+00  -6.8169999267211421e-10 1.2999963071867648e-10 0.0000000000000000e+00  -6.8791814701513961e-10 -7.7361714926955596e-12 0.0000000000000000e+00  -6.7727632101460786e-10 -1.4504249519275632e-10 0.0000000000000000e+00  -6.5005683984840645e-10 -2.7827140195717214e-10 0.0000000000000000e+00  -6.0693483669133777e-10 -4.0388108880427858e-10 0.0000000000000000e+00  -5.4897572755632319e-10 -5.1851464751155734e-10 0.0000000000000000e+00  -4.7764039519004042e-10 -6.1908831054411186e-10 0.0000000000000000e+00  -3.9484529901694241e-10 -7.0288881558475376e-10 0.0000000000000000e+00  -3.0328956667005658e-10 -7.6766656611460561e-10 0.0000000000000000e+00  -2.0796011370795678e-10 -8.1160727797142344e-10 0.0000000000000000e+00  -1.2307710869905118e-10 -8.3220022862053971e-10 0.0000000000000000e+00  -9.3262403399747846e-11 -7.9225840979976063e-10 0.0000000000000000e+00  -1.2014281982080183e-10 9.9747145442562692e-10 0.0000000000000000e+00  -1.4486703072852618e-10 9.4714876240428280e-10 0.0000000000000000e+00  -2.3276399417050813e-10 9.1787416470969683e-10 0.0000000000000000e+00  -3.3092602454561375e-10 8.6439136305178300e-10 0.0000000000000000e+00  -4.2355299992880020e-10 7.8745865582028399e-10 0.0000000000000000e+00  -5.0588078718756567e-10 6.8917081542055074e-10 0.0000000000000000e+00  -5.7545043983314600e-10 5.7237507629921187e-10 0.0000000000000000e+00  -6.3057092776342680e-10 4.4040555560741882e-10 0.0000000000000000e+00  -6.7000905377295332e-10 2.9693779313693977e-10 0.0000000000000000e+00  -6.9292642065795836e-10 1.4587012497212735e-10 0.0000000000000000e+00  -6.9886434948514009e-10 -8.7743751936593646e-12 0.0000000000000000e+00  -6.8773898377270476e-10 -1.6293039483213913e-10 0.0000000000000000e+00  -6.5984091711589534e-10 -3.1256466287595327e-10 0.0000000000000000e+00  -6.1583897446065342e-10 -4.5375036215226617e-10 0.0000000000000000e+00  -5.5678885693254803e-10 -5.8274913503281172e-10 0.0000000000000000e+00  -4.8415510563194368e-10 -6.9610531752094976e-10 0.0000000000000000e+00  -3.9989547846346829e-10 -7.9075174523999208e-10 0.0000000000000000e+00  -3.0683746010730487e-10 -8.6411319539177755e-10 0.0000000000000000e+00  -2.1034605214381962e-10 -9.1409197285212318e-10 0.0000000000000000e+00  -1.2590549705775376e-10 -9.3794445797874569e-10 0.0000000000000000e+00  -1.0260206235839070e-10 -8.9796826256938682e-10 0.0000000000000000e+00  -1.3294356326070725e-10 1.1096674243421457e-09 0.0000000000000000e+00  -1.4992044143777298e-10 1.0576473948178962e-09 0.0000000000000000e+00  -2.3724735400712042e-10 1.0240522516336799e-09 0.0000000000000000e+00  -3.3625279704044886e-10 9.6342715217737861e-10 0.0000000000000000e+00  -4.2979453924073565e-10 8.7680961948564520e-10 0.0000000000000000e+00  -5.1279000013781227e-10 7.6665132321501604e-10 0.0000000000000000e+00  -5.8271831098068801e-10 6.3618203795560570e-10 0.0000000000000000e+00  -6.3791559834216001e-10 4.8912462959036570e-10 0.0000000000000000e+00  -6.7721360087899054e-10 3.2953925576460520e-10 0.0000000000000000e+00  -6.9984705006955556e-10 1.6169956139671690e-10 0.0000000000000000e+00  -7.0541671898767382e-10 -1.0005438963284908e-11 0.0000000000000000e+00  -6.9387086552903994e-10 -1.8114936984132626e-10 0.0000000000000000e+00  -6.6550095036451412e-10 -3.4733580120246379e-10 0.0000000000000000e+00  -6.2095143135997279e-10 -5.0426632000812105e-10 0.0000000000000000e+00  -5.6124300788649686e-10 -6.4782003555469552e-10 0.0000000000000000e+00  -4.8781580256059133e-10 -7.7415152028043523e-10 0.0000000000000000e+00  -4.0264271134123220e-10 -8.7980758941219284e-10 0.0000000000000000e+00  -3.0866236672986522e-10 -9.6184926509875552e-10 0.0000000000000000e+00  -2.1163234312687683e-10 -1.0178652756511089e-09 0.0000000000000000e+00  -1.2843800628899496e-10 -1.0448766304429284e-09 0.0000000000000000e+00  -1.1328095437704784e-10 -1.0047659957248837e-09 0.0000000000000000e+00  -1.4714422892205234e-10 1.2222081646236035e-09 0.0000000000000000e+00  -1.5431289609434879e-10 1.1691065359773003e-09 0.0000000000000000e+00  -2.3976873711500998e-10 1.1311464075512208e-09 0.0000000000000000e+00  -3.3844275002418140e-10 1.0632088449224965e-09 0.0000000000000000e+00  -4.3174886771785968e-10 9.6665818866115157e-10 0.0000000000000000e+00  -5.1430012690858145e-10 8.4436041042135302e-10 0.0000000000000000e+00  -5.8356309889752474e-10 6.9998334108843670e-10 0.0000000000000000e+00  -6.3795931897292489e-10 5.3767817325481898e-10 0.0000000000000000e+00  -6.7644129416134574e-10 3.6190497540000334e-10 0.0000000000000000e+00  -6.9836236074944117e-10 1.7730294312819022e-10 0.0000000000000000e+00  -7.0341147972987293e-10 -1.1402278994259730e-11 0.0000000000000000e+00  -6.9157689130350927e-10 -1.9946257389683631e-10 0.0000000000000000e+00  -6.6313697285743028e-10 -3.8215646828548609e-10 0.0000000000000000e+00  -6.1867862892361828e-10 -5.5484028321485061e-10 0.0000000000000000e+00  -5.5914084137655832e-10 -7.1301737383202777e-10 0.0000000000000000e+00  -4.8588689167664099e-10 -8.5243672912207384e-10 0.0000000000000000e+00  -4.0085571500657902e-10 -9.6922370454850161e-10 0.0000000000000000e+00  -3.0706297578702900e-10 -1.0600297910458601e-09 0.0000000000000000e+00  -2.1066591159952674e-10 -1.1220895224689943e-09 0.0000000000000000e+00  -1.3008545566032810e-10 -1.1521782642858094e-09 0.0000000000000000e+00  -1.2531788266486316e-10 -1.1120569103217607e-09 0.0000000000000000e+00  -1.6277256498895416e-10 1.3334386526772589e-09 0.0000000000000000e+00  -1.5737589807792683e-10 1.2801466343180752e-09 0.0000000000000000e+00  -2.3898952900794941e-10 1.2377461770422690e-09 0.0000000000000000e+00  -3.3548551367696770e-10 1.1623079783599690e-09 0.0000000000000000e+00  -4.2674425876322971e-10 1.0555988005022992e-09 0.0000000000000000e+00  -5.0710452176612047e-10 9.2097514721710361e-10 0.0000000000000000e+00  -5.7409619879840036e-10 7.6260879871506378e-10 0.0000000000000000e+00  -6.2631684954646834e-10 5.8512031844413626e-10 0.0000000000000000e+00  -6.6292764433411615e-10 3.9337704062338139e-10 0.0000000000000000e+00  -6.8347214182309308e-10 1.9235713891419175e-10 0.0000000000000000e+00  -6.8777242059022492e-10 -1.2930088229245636e-11 0.0000000000000000e+00  -6.7586867727538222e-10 -2.1748121636700648e-10 0.0000000000000000e+00  -6.4800398138872136e-10 -4.1631420547234975e-10 0.0000000000000000e+00  -6.0465529390588757e-10 -6.0448784818276752e-10 0.0000000000000000e+00  -5.4660611394299222e-10 -7.7714959810091339e-10 0.0000000000000000e+00  -4.7506004830389234e-10 -9.2962991780648253e-10 0.0000000000000000e+00  -3.9184451742591763e-10 -1.0575900097556820e-09 0.0000000000000000e+00  -2.9999667691079370e-10 -1.1572107365724634e-09 0.0000000000000000e+00  -2.0606955683725003e-10 -1.2253129819857341e-09 0.0000000000000000e+00  -1.3014867068079315e-10 -1.2584043200725939e-09 0.0000000000000000e+00  -1.3873906934585743e-10 -1.2186443758503537e-09 0.0000000000000000e+00  -1.7986162263232535e-10 1.4408893191234975e-09 0.0000000000000000e+00  -1.5830613256371799e-10 1.3886446727208601e-09 0.0000000000000000e+00  -2.3329134859539556e-10 1.3417021395795181e-09 0.0000000000000000e+00  -3.2493545793531300e-10 1.2585626423543661e-09 0.0000000000000000e+00  -4.1151354461289341e-10 1.1415103985254094e-09 0.0000000000000000e+00  -4.871