<?xml version="1.0"?>
<VTKFile type="UnstructuredGrid"  version="0.1"  >
<UnstructuredGrid>
<Piece  NumberOfPoints="651" NumberOfCells="1200">
<Points>
<DataArray  type="Float64"  NumberOfComponents="3"  format="ascii">0 0 0  50000 0 0  100000 0 0  150000 0 0  200000 0 0  250000 0 0  300000 0 0  350000 0 0  400000 0 0  450000 0 0  500000 0 0  550000 0 0  600000 0 0  650000 0 0  700000 0 0  750000 0 0  800000 0 0  850000 0 0  900000 0 0  950000 0 0  1000000 0 0  0 50000 0  50000 50000 0  100000 50000 0  150000 50000 0  200000 50000 0  250000 50000 0  300000 50000 0  350000 50000 0  400000 50000 0  450000 50000 0  500000 50000 0  550000 50000 0  600000 50000 0  650000 50000 0  700000 50000 0  750000 50000 0  800000 50000 0  850000 50000 0  900000 50000 0  950000 50000 0  1000000 50000 0  0 100000 0  50000 100000 0  100000 100000 0  150000 100000 0  200000 100000 0  250000 100000 0  300000 100000 0  350000 100000 0  400000 100000 0  450000 100000 0  500000 100000 0  550000 100000 0  600000 100000 0  650000 100000 0  700000 100000 0  750000 100000 0  800000 100000 0  850000 100000 0  900000 100000 0  950000 100000 0  1000000 100000 0  0 150000 0  50000 150000 0  100000 150000 0  150000 150000 0  200000 150000 0  250000 150000 0  300000 150000 0  350000 150000 0  400000 150000 0  450000 150000 0  500000 150000 0  550000 150000 0  600000 150000 0  650000 150000 0  700000 150000 0  750000 150000 0  800000 150000 0  850000 150000 0  900000 150000 0  950000 150000 0  1000000 150000 0  0 200000 0  50000 200000 0  100000 200000 0  150000 200000 0  200000 200000 0  250000 200000 0  300000 200000 0  350000 200000 0  400000 200000 0  450000 200000 0  500000 200000 0  550000 200000 0  600000 200000 0  650000 200000 0  700000 200000 0  750000 200000 0  800000 200000 0  850000 200000 0  900000 200000 0  950000 200000 0  1000000 200000 0  0 250000 0  50000 250000 0  100000 250000 0  150000 250000 0  200000 250000 0  250000 250000 0  300000 250000 0  350000 250000 0  400000 250000 0  450000 250000 0  500000 250000 0  550000 250000 0  600000 250000 0  650000 250000 0  700000 250000 0  750000 250000 0  800000 250000 0  850000 250000 0  900000 250000 0  950000 250000 0  1000000 250000 0  0 300000 0  50000 300000 0  100000 300000 0  150000 300000 0  200000 300000 0  250000 300000 0  300000 300000 0  350000 300000 0  400000 300000 0  450000 300000 0  500000 300000 0  550000 300000 0  600000 300000 0  650000 300000 0  700000 300000 0  750000 300000 0  800000 300000 0  850000 300000 0  900000 300000 0  950000 300000 0  1000000 300000 0  0 350000 0  50000 350000 0  100000 350000 0  150000 350000 0  200000 350000 0  250000 350000 0  300000 350000 0  350000 350000 0  400000 350000 0  450000 350000 0  500000 350000 0  550000 350000 0  600000 350000 0  650000 350000 0  700000 350000 0  750000 350000 0  800000 350000 0  850000 350000 0  900000 350000 0  950000 350000 0  1000000 350000 0  0 400000 0  50000 400000 0  100000 400000 0  150000 400000 0  200000 400000 0  250000 400000 0  300000 400000 0  350000 400000 0  400000 400000 0  450000 400000 0  500000 400000 0  550000 400000 0  600000 400000 0  650000 400000 0  700000 400000 0  750000 400000 0  800000 400000 0  850000 400000 0  900000 400000 0  950000 400000 0  1000000 400000 0  0 450000 0  50000 450000 0  100000 450000 0  150000 450000 0  200000 450000 0  250000 450000 0  300000 450000 0  350000 450000 0  400000 450000 0  450000 450000 0  500000 450000 0  550000 450000 0  600000 450000 0  650000 450000 0  700000 450000 0  750000 450000 0  800000 450000 0  850000 450000 0  900000 450000 0  950000 450000 0  1000000 450000 0  0 500000 0  50000 500000 0  100000 500000 0  150000 500000 0  200000 500000 0  250000 500000 0  300000 500000 0  350000 500000 0  400000 500000 0  450000 500000 0  500000 500000 0  550000 500000 0  600000 500000 0  650000 500000 0  700000 500000 0  750000 500000 0  800000 500000 0  850000 500000 0  900000 500000 0  950000 500000 0  1000000 500000 0  0 550000 0  50000 550000 0  100000 550000 0  150000 550000 0  200000 550000 0  250000 550000 0  300000 550000 0  350000 550000 0  400000 550000 0  450000 550000 0  500000 550000 0  550000 550000 0  600000 550000 0  650000 550000 0  700000 550000 0  750000 550000 0  800000 550000 0  850000 550000 0  900000 550000 0  950000 550000 0  1000000 550000 0  0 600000 0  50000 600000 0  100000 600000 0  150000 600000 0  200000 600000 0  250000 600000 0  300000 600000 0  350000 600000 0  400000 600000 0  450000 600000 0  500000 600000 0  550000 600000 0  600000 600000 0  650000 600000 0  700000 600000 0  750000 600000 0  800000 600000 0  850000 600000 0  900000 600000 0  950000 600000 0  1000000 600000 0  0 650000 0  50000 650000 0  100000 650000 0  150000 650000 0  200000 650000 0  250000 650000 0  300000 650000 0  350000 650000 0  400000 650000 0  450000 650000 0  500000 650000 0  550000 650000 0  600000 650000 0  650000 650000 0  700000 650000 0  750000 650000 0  800000 650000 0  850000 650000 0  900000 650000 0  950000 650000 0  1000000 650000 0  0 700000 0  50000 700000 0  100000 700000 0  150000 700000 0  200000 700000 0  250000 700000 0  300000 700000 0  350000 700000 0  400000 700000 0  450000 700000 0  500000 700000 0  550000 700000 0  600000 700000 0  650000 700000 0  700000 700000 0  750000 700000 0  800000 700000 0  850000 700000 0  900000 700000 0  950000 700000 0  1000000 700000 0  0 750000 0  50000 750000 0  100000 750000 0  150000 750000 0  200000 750000 0  250000 750000 0  300000 750000 0  350000 750000 0  400000 750000 0  450000 750000 0  500000 750000 0  550000 750000 0  600000 750000 0  650000 750000 0  700000 750000 0  750000 750000 0  800000 750000 0  850000 750000 0  900000 750000 0  950000 750000 0  1000000 750000 0  0 800000 0  50000 800000 0  100000 800000 0  150000 800000 0  200000 800000 0  250000 800000 0  300000 800000 0  350000 800000 0  400000 800000 0  450000 800000 0  500000 800000 0  550000 800000 0  600000 800000 0  650000 800000 0  700000 800000 0  750000 800000 0  800000 800000 0  850000 800000 0  900000 800000 0  950000 800000 0  1000000 800000 0  0 850000 0  50000 850000 0  100000 850000 0  150000 850000 0  200000 850000 0  250000 850000 0  300000 850000 0  350000 850000 0  400000 850000 0  450000 850000 0  500000 850000 0  550000 850000 0  600000 850000 0  650000 850000 0  700000 850000 0  750000 850000 0  800000 850000 0  850000 850000 0  900000 850000 0  950000 850000 0  1000000 850000 0  0 900000 0  50000 900000 0  100000 900000 0  150000 900000 0  200000 900000 0  250000 900000 0  300000 900000 0  350000 900000 0  400000 900000 0  450000 900000 0  500000 900000 0  550000 900000 0  600000 900000 0  650000 900000 0  700000 900000 0  750000 900000 0  800000 900000 0  850000 900000 0  900000 900000 0  950000 900000 0  1000000 900000 0  0 950000 0  50000 950000 0  100000 950000 0  150000 950000 0  200000 950000 0  250000 950000 0  300000 950000 0  350000 950000 0  400000 950000 0  450000 950000 0  500000 950000 0  550000 950000 0  600000 950000 0  650000 950000 0  700000 950000 0  750000 950000 0  800000 950000 0  850000 950000 0  900000 950000 0  950000 950000 0  1000000 950000 0  0 1000000 0  50000 1000000 0  100000 1000000 0  150000 1000000 0  200000 1000000 0  250000 1000000 0  300000 1000000 0  350000 1000000 0  400000 1000000 0  450000 1000000 0  500000 1000000 0  550000 1000000 0  600000 1000000 0  650000 1000000 0  700000 1000000 0  750000 1000000 0  800000 1000000 0  850000 1000000 0  900000 1000000 0  950000 1000000 0  1000000 1000000 0  0 1050000 0  50000 1050000 0  100000 1050000 0  150000 1050000 0  200000 1050000 0  250000 1050000 0  300000 1050000 0  350000 1050000 0  400000 1050000 0  450000 1050000 0  500000 1050000 0  550000 1050000 0  600000 1050000 0  650000 1050000 0  700000 1050000 0  750000 1050000 0  800000 1050000 0  850000 1050000 0  900000 1050000 0  950000 1050000 0  1000000 1050000 0  0 1100000 0  50000 1100000 0  100000 1100000 0  150000 1100000 0  200000 1100000 0  250000 1100000 0  300000 1100000 0  350000 1100000 0  400000 1100000 0  450000 1100000 0  500000 1100000 0  550000 1100000 0  600000 1100000 0  650000 1100000 0  700000 1100000 0  750000 1100000 0  800000 1100000 0  850000 1100000 0  900000 1100000 0  950000 1100000 0  1000000 1100000 0  0 1150000 0  50000 1150000 0  100000 1150000 0  150000 1150000 0  200000 1150000 0  250000 1150000 0  300000 1150000 0  350000 1150000 0  400000 1150000 0  450000 1150000 0  500000 1150000 0  550000 1150000 0  600000 1150000 0  650000 1150000 0  700000 1150000 0  750000 1150000 0  800000 1150000 0  850000 1150000 0  900000 1150000 0  950000 1150000 0  1000000 1150000 0  0 1200000 0  50000 1200000 0  100000 1200000 0  150000 1200000 0  200000 1200000 0  250000 1200000 0  300000 1200000 0  350000 1200000 0  400000 1200000 0  450000 1200000 0  500000 1200000 0  550000 1200000 0  600000 1200000 0  650000 1200000 0  700000 1200000 0  750000 1200000 0  800000 1200000 0  850000 1200000 0  900000 1200000 0  950000 1200000 0  1000000 1200000 0  0 1250000 0  50000 1250000 0  100000 1250000 0  150000 1250000 0  200000 1250000 0  250000 1250000 0  300000 1250000 0  350000 1250000 0  400000 1250000 0  450000 1250000 0  500000 1250000 0  550000 1250000 0  600000 1250000 0  650000 1250000 0  700000 1250000 0  750000 1250000 0  800000 1250000 0  850000 1250000 0  900000 1250000 0  950000 1250000 0  1000000 1250000 0  0 1300000 0  50000 1300000 0  100000 1300000 0  150000 1300000 0  200000 1300000 0  250000 1300000 0  300000 1300000 0  350000 1300000 0  400000 1300000 0  450000 1300000 0  500000 1300000 0  550000 1300000 0  600000 1300000 0  650000 1300000 0  700000 1300000 0  750000 1300000 0  800000 1300000 0  850000 1300000 0  900000 1300000 0  950000 1300000 0  1000000 1300000 0  0 1350000 0  50000 1350000 0  100000 1350000 0  150000 1350000 0  200000 1350000 0  250000 1350000 0  300000 1350000 0  350000 1350000 0  400000 1350000 0  450000 1350000 0  500000 1350000 0  550000 1350000 0  600000 1350000 0  650000 1350000 0  700000 135
[...]
<PointData  Vectors="f_1505"> 
<DataArray  type="Float64"  Name="f_1505"  NumberOfComponents="3" format="ascii">-7.9011308919530300e-11 7.6219241444658465e-11 0.0000000000000000e+00  -1.4721682369138852e-10 6.2884443134692022e-11 0.0000000000000000e+00  -2.6855528883358932e-10 5.7104022773950361e-11 0.0000000000000000e+00  -3.8583412557778103e-10 5.2034527576018144e-11 0.0000000000000000e+00  -4.9321921560204076e-10 4.6212342970490587e-11 0.0000000000000000e+00  -5.8757287574268169e-10 3.9469488306522809e-11 0.0000000000000000e+00  -6.6634678281053070e-10 3.1867307193539505e-11 0.0000000000000000e+00  -7.2748074484495354e-10 2.3547496223420043e-11 0.0000000000000000e+00  -7.6939977208568914e-10 1.4695312965342315e-11 0.0000000000000000e+00  -7.9104136972066772e-10 5.5213591924597028e-12 0.0000000000000000e+00  -7.9187817647136488e-10 -3.7499787387497667e-12 0.0000000000000000e+00  -7.7192890379824825e-10 -1.2889366015694425e-11 0.0000000000000000e+00  -7.3175624358028674e-10 -2.1670274567169665e-11 0.0000000000000000e+00  -6.7245173559101896e-10 -2.9876501268319736e-11 0.0000000000000000e+00  -5.9561027912972801e-10 -3.7310512733901306e-11 0.0000000000000000e+00  -5.0331082946912858e-10 -4.3806114272585649e-11 0.0000000000000000e+00  -3.9819008611748917e-10 -4.9258381220856431e-11 0.0000000000000000e+00  -2.8400724430131131e-10 -5.3706854897451074e-11 0.0000000000000000e+00  -1.6831795847723290e-10 -5.7254038524520436e-11 0.0000000000000000e+00  -7.3839571479843019e-11 -5.5423352234017884e-11 0.0000000000000000e+00  -3.4031882725478884e-11 -3.4623353345965224e-11 0.0000000000000000e+00  -6.7115518899341297e-11 1.3912317910434231e-10 0.0000000000000000e+00  -1.2394757425943910e-10 1.2258111507829472e-10 0.0000000000000000e+00  -2.2070847010561076e-10 1.2531315084631749e-10 0.0000000000000000e+00  -3.2645278495893766e-10 1.1940910778920657e-10 0.0000000000000000e+00  -4.2726724494812667e-10 1.0877302978501401e-10 0.0000000000000000e+00  -5.1813276848779977e-10 9.4732500198679646e-11 0.0000000000000000e+00  -5.9601640920228833e-10 7.7998994236964566e-11 0.0000000000000000e+00  -6.5862508760583767e-10 5.9146503801862593e-11 0.0000000000000000e+00  -7.0421293072662545e-10 3.8731200840456971e-11 0.0000000000000000e+00  -7.3154964880326157e-10 1.7319696996851260e-11 0.0000000000000000e+00  -7.3992175105065483e-10 -4.5091797896499994e-12 0.0000000000000000e+00  -7.2913732635856154e-10 -2.6171622174312928e-11 0.0000000000000000e+00  -6.9952598374296771e-10 -4.7088982584026351e-11 0.0000000000000000e+00  -6.5193211294450307e-10 -6.6697895158667646e-11 0.0000000000000000e+00  -5.8770406068522757e-10 -8.4457743361687018e-11 0.0000000000000000e+00  -5.0869140666834500e-10 -9.9850552353070521e-11 0.0000000000000000e+00  -4.1729642554421732e-10 -1.1235748762963429e-10 0.0000000000000000e+00  -3.1676467769817557e-10 -1.2133319593712682e-10 0.0000000000000000e+00  -2.1248652806998180e-10 -1.2529932031547872e-10 0.0000000000000000e+00  -1.1750675937401541e-10 -1.1851279197730438e-10 0.0000000000000000e+00  -5.6735292139724330e-11 -7.1544302566972269e-11 0.0000000000000000e+00  -6.6002325987291472e-11 2.5063764450365770e-10 0.0000000000000000e+00  -1.2668480954418460e-10 2.1656047651836942e-10 0.0000000000000000e+00  -2.1929414187686856e-10 2.1737204425739515e-10 0.0000000000000000e+00  -3.1699982400215108e-10 2.0810009609438776e-10 0.0000000000000000e+00  -4.1012360079237356e-10 1.9064747516849558e-10 0.0000000000000000e+00  -4.9438329860276489e-10 1.6685080218142401e-10 0.0000000000000000e+00  -5.6680575314460415e-10 1.3803925302403112e-10 0.0000000000000000e+00  -6.2514007081370003e-10 1.0530912595793733e-10 0.0000000000000000e+00  -6.6768127874064236e-10 6.9694461331296114e-11 0.0000000000000000e+00  -6.9323262104650557e-10 3.2227198281551665e-11 0.0000000000000000e+00  -7.0110038013103609e-10 -6.0498400579909040e-12 0.0000000000000000e+00  -6.9109420460626757e-10 -4.4088995144852788e-11 0.0000000000000000e+00  -6.6352539207285560e-10 -8.0850697054037324e-11 0.0000000000000000e+00  -6.1920116792403571e-10 -1.1531650764598591e-10 0.0000000000000000e+00  -5.5941697492341226e-10 -1.4649584096117967e-10 0.0000000000000000e+00  -4.8595627189816110e-10 -1.7341521306131353e-10 0.0000000000000000e+00  -4.0113125626560014e-10 -1.9506346596760861e-10 0.0000000000000000e+00  -3.0798872701496301e-10 -2.1022305209278266e-10 0.0000000000000000e+00  -2.1115098408897086e-10 -2.1699743422481255e-10 0.0000000000000000e+00  -1.2086252006295642e-10 -2.1197215687797857e-10 0.0000000000000000e+00  -6.0404213639827954e-11 -1.5813418942094178e-10 0.0000000000000000e+00  -6.8467566066417215e-11 3.6041950524381872e-10 0.0000000000000000e+00  -1.2601729363104309e-10 3.2121169372948245e-10 0.0000000000000000e+00  -2.1702879925534201e-10 3.1572780525679455e-10 0.0000000000000000e+00  -3.1184793547276776e-10 3.0081962835320469e-10 0.0000000000000000e+00  -4.0115072990216030e-10 2.7568413512562396e-10 0.0000000000000000e+00  -4.8146069614761043e-10 2.4172279468358068e-10 0.0000000000000000e+00  -5.5031761412132640e-10 2.0050097031889184e-10 0.0000000000000000e+00  -6.0570208972266639e-10 1.5352807991527366e-10 0.0000000000000000e+00  -6.4602676002759871e-10 1.0229541162753993e-10 0.0000000000000000e+00  -6.7016127091536733e-10 4.8306986862945922e-11 0.0000000000000000e+00  -6.7744798840268819e-10 -6.9152619891549672e-12 0.0000000000000000e+00  -6.6770918503111300e-10 -6.1842456696976490e-11 0.0000000000000000e+00  -6.4124690133658374e-10 -1.1495687548099315e-10 0.0000000000000000e+00  -5.9883602755101648e-10 -1.6477051521838391e-10 0.0000000000000000e+00  -5.4171127074570969e-10 -2.0983784653206098e-10 0.0000000000000000e+00  -4.7155129401501594e-10 -2.4875500389797344e-10 0.0000000000000000e+00  -3.9047740405615156e-10 -2.8013628157761251e-10 0.0000000000000000e+00  -3.0115802354843308e-10 -3.0256862235788979e-10 0.0000000000000000e+00  -2.0748487365712438e-10 -3.1455950481673355e-10 0.0000000000000000e+00  -1.1896294711459822e-10 -3.1431781313093106e-10 0.0000000000000000e+00  -6.1146314799484559e-11 -2.6344893604629571e-10 0.0000000000000000e+00  -7.2833253778117034e-11 4.6789340620730287e-10 0.0000000000000000e+00  -1.2610840244533206e-10 4.2608400334217076e-10 0.0000000000000000e+00  -2.1592438596860054e-10 4.1483121217153136e-10 0.0000000000000000e+00  -3.0975934976461549e-10 3.9319945551350333e-10 0.0000000000000000e+00  -3.9765164135769117e-10 3.5974317567756827e-10 0.0000000000000000e+00  -4.7621643595578432e-10 3.1545003524225616e-10 0.0000000000000000e+00  -5.4327294345265766e-10 2.6192138505065657e-10 0.0000000000000000e+00  -5.9703132178018309e-10 2.0094661816654523e-10 0.0000000000000000e+00  -6.3604839931636841e-10 1.3440517853443020e-10 0.0000000000000000e+00  -6.5927878918512578e-10 6.4237085273198053e-11 0.0000000000000000e+00  -6.6611164995534848e-10 -7.5784636676286370e-12 0.0000000000000000e+00  -6.5638800473859392e-10 -7.9048168200254122e-11 0.0000000000000000e+00  -6.3040401451175097e-10 -1.4819304512926147e-10 0.0000000000000000e+00  -5.8890278439484718e-10 -2.1307748755646769e-10 0.0000000000000000e+00  -5.3305493854624850e-10 -2.7183640381914532e-10 0.0000000000000000e+00  -4.6442920619791753e-10 -3.2269993754527559e-10 0.0000000000000000e+00  -3.8497122092956000e-10 -3.6402282083013809e-10 0.0000000000000000e+00  -2.9710772851824649e-10 -3.9434472714725221e-10 0.0000000000000000e+00  -2.0457351705290586e-10 -4.1247158810385835e-10 0.0000000000000000e+00  -1.1744194831611914e-10 -4.1707786194884140e-10 0.0000000000000000e+00  -6.3767849142183955e-11 -3.6979837870116635e-10 0.0000000000000000e+00  -7.8775884899417301e-11 5.7439849791562143e-10 0.0000000000000000e+00  -1.2762284065643593e-10 5.3047070009781374e-10 0.0000000000000000e+00  -2.1677234269865286e-10 5.1421244991412767e-10 0.0000000000000000e+00  -3.1068889432105665e-10 4.8559889508262024e-10 0.0000000000000000e+00  -3.9859105366516573e-10 4.4339445077322122e-10 0.0000000000000000e+00  -4.7689657730691142e-10 3.8850526594154674e-10 0.0000000000000000e+00  -5.4347841534664610e-10 3.2259800826435104e-10 0.0000000000000000e+00  -5.9666818341857093e-10 2.4769113730754097e-10 0.0000000000000000e+00  -6.3513142885522176e-10 1.6600159786162207e-10 0.0000000000000000e+00  -6.5790009028381555e-10 7.9867797354585645e-11 0.0000000000000000e+00  -6.6441069625940955e-10 -8.3018770353787693e-12 0.0000000000000000e+00  -6.5452586490613040e-10 -9.6073234990267184e-11 0.0000000000000000e+00  -6.2853988056731600e-10 -1.8102905991986579e-10 0.0000000000000000e+00  -5.8717048576227417e-10 -2.6081231982047782e-10 0.0000000000000000e+00  -5.3153760178040821e-10 -3.3317131855166841e-10 0.0000000000000000e+00  -4.6313269981437257e-10 -3.9601087262791657e-10 0.0000000000000000e+00  -3.8380765407967114e-10 -4.4745990372750662e-10 0.0000000000000000e+00  -2.9593555331100386e-10 -4.8597148541190402e-10 0.0000000000000000e+00  -2.0343009285505941e-10 -5.1038613720809255e-10 0.0000000000000000e+00  -1.1725743816071680e-10 -5.1935123232570511e-10 0.0000000000000000e+00  -6.8039033056419065e-11 -4.7457859291752615e-10 0.0000000000000000e+00  -8.6187920909062707e-11 6.8114815276357475e-10 0.0000000000000000e+00  -1.3052482357625714e-10 6.3520239177725032e-10 0.0000000000000000e+00  -2.1956261545648997e-10 6.1434981027475749e-10 0.0000000000000000e+00  -3.1430823001266455e-10 5.7878626327571185e-10 0.0000000000000000e+00  -4.0310387212216558e-10 5.2758223860219391e-10 0.0000000000000000e+00  -4.8209028127737484e-10 4.6181117192036651e-10 0.0000000000000000e+00  -5.4908055625943089e-10 3.8330865908326997e-10 0.0000000000000000e+00  -6.0243813840187261e-10 2.9433974022827162e-10 0.0000000000000000e+00  -6.4088766713103924e-10 1.9744432267382714e-10 0.0000000000000000e+00  -6.6351636050797577e-10 9.5336960894068279e-11 0.0000000000000000e+00  -6.6980060789113056e-10 -9.1671402052621218e-12 0.0000000000000000e+00  -6.5962423504512248e-10 -1.1321410524556259e-10 0.0000000000000000e+00  -6.3328396266714480e-10 -2.1396887510881198e-10 0.0000000000000000e+00  -5.9148254793314841e-10 -3.0867278733487602e-10 0.0000000000000000e+00  -5.3531085040159975e-10 -3.9470524332496912e-10 0.0000000000000000e+00  -4.6622588571702231e-10 -4.6965455877154515e-10 0.0000000000000000e+00  -3.8606328575440672e-10 -5.3140474869048428e-10 0.0000000000000000e+00  -2.9726056121488061e-10 -5.7823946244006807e-10 0.0000000000000000e+00  -2.0403742787730556e-10 -6.0886529804107112e-10 0.0000000000000000e+00  -1.1835134429540345e-10 -6.2174874985689234e-10 0.0000000000000000e+00  -7.3741679635332357e-11 -5.7839785942414050e-10 0.0000000000000000e+00  -9.5032135175993214e-11 7.8905320095465831e-10 0.0000000000000000e+00  -1.3456777118909149e-10 7.4110183595560491e-10 0.0000000000000000e+00  -2.2388014581424949e-10 7.1586308197383804e-10 0.0000000000000000e+00  -3.1994899127418593e-10 6.7337755051465518e-10 0.0000000000000000e+00  -4.1015891070409527e-10 6.1299377287024395e-10 0.0000000000000000e+00  -4.9035724325830513e-10 5.3605873816455382e-10 0.0000000000000000e+00  -5.5825819149227415e-10 4.4466793916920270e-10 0.0000000000000000e+00  -6.1221083809596270e-10 3.4137706435043561e-10 0.0000000000000000e+00  -6.5096433669010512e-10 2.2905988250530833e-10 0.0000000000000000e+00  -6.7364175981912863e-10 1.1080103934921324e-10 0.0000000000000000e+00  -6.7975092250841292e-10 -1.0190918115580848e-11 0.0000000000000000e+00  -6.6919508790201361e-10 -1.3065829660431809e-10 0.0000000000000000e+00  -6.4227644554964369e-10 -2.4736334342440056e-10 0.0000000000000000e+00  -5.9969160460703435e-10 -3.5715729307420388e-10 0.0000000000000000e+00  -5.4252047299464252e-10 -4.5705439891726193e-10 0.0000000000000000e+00  -4.7221751830143741e-10 -5.4431540674084889e-10 0.0000000000000000e+00  -3.9064945563154391e-10 -6.1654302660528579e-10 0.0000000000000000e+00  -3.0037246089030175e-10 -6.7178208446925994e-10 0.0000000000000000e+00  -2.0595694633705171e-10 -7.0851997180946495e-10 0.0000000000000000e+00  -1.2044223388208981e-10 -7.2500481446559182e-10 0.0000000000000000e+00  -8.0792208898232630e-11 -6.8226741306373627e-10 0.0000000000000000e+00  -1.0530960446711410e-10 8.9864176063920102e-10 0.0000000000000000e+00  -1.3941346922744400e-10 8.4872940017989249e-10 0.0000000000000000e+00  -2.2909529471468495e-10 8.1918321157351589e-10 0.0000000000000000e+00  -3.2668296145562928e-10 7.6973717254337584e-10 0.0000000000000000e+00  -4.1849356480821221e-10 6.9998996272901960e-10 0.0000000000000000e+00  -5.0007714856700215e-10 6.1160554731814826e-10 0.0000000000000000e+00  -5.6904689773154739e-10 5.0700105947526079e-10 0.0000000000000000e+00  -6.2372689202396287e-10 3.8906705479431978e-10 0.0000000000000000e+00  -6.6287955470162424e-10 2.6103235103674119e-10 0.0000000000000000e+00  -6.8565671149429559e-10 1.2635507441721248e-10 0.0000000000000000e+00  -6.9159446514960960e-10 -1.1370325289592167e-11 0.0000000000000000e+00  -6.8061457818265433e-10 -1.4849449565663733e-10 0.0000000000000000e+00  -6.5302509407094841e-10 -2.8138860500034079e-10 0.0000000000000000e+00  -6.0951903679916656e-10 -4.0651996378453870e-10 0.0000000000000000e+00  -5.5117223182695450e-10 -5.2053353823057124e-10 0.0000000000000000e+00  -4.7944950727361407e-10 -6.2034330303813261e-10 0.0000000000000000e+00  -3.9626625995300519e-10 -7.0323358936152030e-10 0.0000000000000000e+00  -3.0431429798243657e-10 -7.6696001296207447e-10 0.0000000000000000e+00  -2.0853559110830700e-10 -8.0974726484545644e-10 0.0000000000000000e+00  -1.2316315281221394e-10 -8.2962118049921483e-10 0.0000000000000000e+00  -8.9162813340985698e-11 -7.8695809571205510e-10 0.0000000000000000e+00  -1.1704463216814845e-10 1.0100072759238181e-09 0.0000000000000000e+00  -1.4465741145355324e-10 9.5828482822696414e-10 0.0000000000000000e+00  -2.3442121567621264e-10 9.2442073211424060e-10 0.0000000000000000e+00  -3.3335358443052848e-10 8.6790873158031500e-10 0.0000000000000000e+00  -4.2658108830928283e-10 7.8858675433198329e-10 0.0000000000000000e+00  -5.0935426913589942e-10 6.8846332341921085e-10 0.0000000000000000e+00  -5.7920283388339813e-10 5.7032075448997895e-10 0.0000000000000000e+00  -6.3444131011868995e-10 4.3742206035162352e-10 0.0000000000000000e+00  -6.7385722088694329e-10 2.9337260079194990e-10 0.0000000000000000e+00  -6.9664022633240759e-10 1.4200890027530320e-10 0.0000000000000000e+00  -7.0236052593823665e-10 -1.2696002107735269e-11 0.0000000000000000e+00  -6.9095978971048653e-10 -1.6671444923348498e-10 0.0000000000000000e+00  -6.6274860740991937e-10 -3.1603931227545150e-10 0.0000000000000000e+00  -6.1840952109594862e-10 -4.5675995747877118e-10 0.0000000000000000e+00  -5.5900595928845501e-10 -5.8514614484917642e-10 0.0000000000000000e+00  -4.8600536172149042e-10 -6.9774438753930024e-10 0.0000000000000000e+00  -4.0136521277757788e-10 -7.9148640501831619e-10 0.0000000000000000e+00  -3.0790861774179422e-10 -8.6379885467733320e-10 0.0000000000000000e+00  -2.1096371788859852e-10 -9.1261501913369782e-10 0.0000000000000000e+00  -1.2608333602261088e-10 -9.3574023662930740e-10 0.0000000000000000e+00  -9.8852775103946481e-11 -8.9285064971200577e-10 0.0000000000000000e+00  -1.3027649804850980e-10 1.1227459861379158e-09 0.0000000000000000e+00  -1.4982372647320950e-10 1.0695284352601190e-09 0.0000000000000000e+00  -2.3891270002184055e-10 1.0312751047006735e-09 0.0000000000000000e+00  -3.3856165469419515e-10 9.6753920545069476e-10 0.0000000000000000e+00  -4.3258208804485742e-10 8.7840869781013463e-10 0.0000000000000000e+00  -5.1592658806329267e-10 7.6626743412908018e-10 0.0000000000000000e+00  -5.8607438334294415e-10 6.3430148514605266e-10 0.0000000000000000e+00  -6.4136817426565445e-10 4.8617882650518955e-10 0.0000000000000000e+00  -6.8065497605979358e-10 3.2589851984980799e-10 0.0000000000000000e+00  -7.0318942525120984e-10 1.5767517906215906e-10 0.0000000000000000e+00  -7.0859268835123322e-10 -1.4153900517127119e-11 0.0000000000000000e+00  -6.9683090444157126e-10 -1.8520432543321532e-10 0.0000000000000000e+00  -6.6820916784244903e-10 -3.5111132813978105e-10 0.0000000000000000e+00  -6.2338068380458104e-10 -5.0759829612441725e-10 0.0000000000000000e+00  -5.6337029890810048e-10 -6.5055724117987356e-10 0.0000000000000000e+00  -4.8961877934296615e-10 -7.7614790751013243e-10 0.0000000000000000e+00  -4.0409765228115026e-10 -8.8091612785021045e-10 0.0000000000000000e+00  -3.0974123456033425e-10 -9.6192115676287409e-10 0.0000000000000000e+00  -2.1227451877435719e-10 -1.0167758162158074e-09 0.0000000000000000e+00  -1.2870174646246165e-10 -1.0430629749374685e-09 0.0000000000000000e+00  -1.0987762843586075e-10 -9.9987256338296833e-10 0.0000000000000000e+00  -1.4505466840866086e-10 1.2358739291098432e-09 0.0000000000000000e+00  -1.5434842289536586e-10 1.1816956227217754e-09 0.0000000000000000e+00  -2.4143817661245158e-10 1.1389413031043371e-09 0.0000000000000000e+00  -3.4062041747716713e-10 1.0677886738169970e-09 0.0000000000000000e+00  -4.3427269235908615e-10 9.6861181315573191e-10 0.0000000000000000e+00  -5.1706022275900171e-10 8.4421379893623963e-10 0.0000000000000000e+00  -5.8646276464455302e-10 6.9822761452663494e-10 0.0000000000000000e+00  -6.4091282231915291e-10 5.3475721471510847e-10 0.0000000000000000e+00  -6.7937600222415296e-10 3.5820601299869439e-10 0.0000000000000000e+00  -7.0121967857473110e-10 1.7315519496890248e-10 0.0000000000000000e+00  -7.0614590514365588e-10 -1.5723035914835949e-11 0.0000000000000000e+00  -6.9415349186052200e-10 -2.0372604809788920e-10 0.0000000000000000e+00  -6.6552788306079279e-10 -3.8616837788950920e-10 0.0000000000000000e+00  -6.2085922451664727e-10 -5.5843250331858945e-10 0.0000000000000000e+00  -5.6108623883567502e-10 -7.1603827375139342e-10 0.0000000000000000e+00  -4.8756937840497919e-10 -8.5474189362082031e-10 0.0000000000000000e+00  -4.0224334483990453e-10 -9.7066743858674982e-10 0.0000000000000000e+00  -3.0811716460067711e-10 -1.0604614382296398e-09 0.0000000000000000e+00  -2.1131706202138753e-10 -1.1213771692763445e-09 0.0000000000000000e+00  -1.3042990202269922e-10 -1.1507649663820161e-09 0.0000000000000000e+00  -1.2226370782710428e-10 -1.1074329809128633e-09 0.0000000000000000e+00  -1.6143638013837190e-10 1.3477191574822456e-09 0.0000000000000000e+00  -1.5755682821167379e-10 1.2933934949526519e-09 0.0000000000000000e+00  -2.4063689898528870e-10 1.2459999292504316e-09 0.0000000000000000e+00  -3.3748940421656129e-10 1.1672187027573727e-09 0.0000000000000000e+00  -4.2894963831363169e-10 1.0577770675912856e-09 0.0000000000000000e+00  -5.0942130003014751e-10 9.2096268567270718e-10 0.0000000000000000e+00  -5.7646010410964238e-10 7.6091089163950314e-10 0.0000000000000000e+00  -6.2867994891034270e-10 5.8219464305337130e-10 0.0000000000000000e+00  -6.6525433927819987e-10 3.8962397758823580e-10 0.0000000000000000e+00  -6.8573625310119544e-10 1.8811751058186057e-10 0.0000000000000000e+00  -6.8995438319681624e-10 -1.7371423984335162e-11 0.0000000000000000e+00  -6.7795255685839063e-10 -2.2188812740611025e-10 0.0000000000000000e+00  -6.4997434163877671e-10 -4.2049011808410637e-10 0.0000000000000000e+00  -6.0649412290200135e-10 -6.0826573445779524e-10 0.0000000000000000e+00  -5.4829012017012892e-10 -7.8038164811383760e-10 0.0000000000000000e+00  -4.7655866841283565e-10 -9.3217705605465569e-10 0.0000000000000000e+00  -3.9311870303748334e-10 -1.0593116575654735e-09 0.0000000000000000e+00  -3.0099665360627287e-10 -1.1579590570912859e-09 0.0000000000000000e+00  -2.0671434196369408e-10 -1.2249552073947972e-09 0.0000000000000000e+00  -1.3056866347589123e-10 -1.2573955515308334e-09 0.0000000000000000e+00  -1.3604483855975735e-10 -1.2143374614156349e-09 0.0000000000000000e+00  -1.7948674066773839e-10 1.4557853410383227e-09 0.0000000000000000e+00  -1.5863709092174700e-10 1.4024729398717492e-09 0.0000000000000000e+00  -2.3486542765145562e-10 1.3502828342506254e-09 0.0000000000000000e+00  -3.2669060061804652e-10 1.2636529754376795e-09 0.0000000000000000e+00  -4.1331196867386014e-10 1.1437714582072800e-09 0.0000000000000000e+00  -4.8892