<?xml version="1.0"?>
<VTKFile type="UnstructuredGrid"  version="0.1"  >
<UnstructuredGrid>
<Piece  NumberOfPoints="651" NumberOfCells="1200">
<Points>
<DataArray  type="Float64"  NumberOfComponents="3"  format="ascii">0 0 0  50000 0 0  100000 0 0  150000 0 0  200000 0 0  250000 0 0  300000 0 0  350000 0 0  400000 0 0  450000 0 0  500000 0 0  550000 0 0  600000 0 0  650000 0 0  700000 0 0  750000 0 0  800000 0 0  850000 0 0  900000 0 0  950000 0 0  1000000 0 0  0 50000 0  50000 50000 0  100000 50000 0  150000 50000 0  200000 50000 0  250000 50000 0  300000 50000 0  350000 50000 0  400000 50000 0  450000 50000 0  500000 50000 0  550000 50000 0  600000 50000 0  650000 50000 0  700000 50000 0  750000 50000 0  800000 50000 0  850000 50000 0  900000 50000 0  950000 50000 0  1000000 50000 0  0 100000 0  50000 100000 0  100000 100000 0  150000 100000 0  200000 100000 0  250000 100000 0  300000 100000 0  350000 100000 0  400000 100000 0  450000 100000 0  500000 100000 0  550000 100000 0  600000 100000 0  650000 100000 0  700000 100000 0  750000 100000 0  800000 100000 0  850000 100000 0  900000 100000 0  950000 100000 0  1000000 100000 0  0 150000 0  50000 150000 0  100000 150000 0  150000 150000 0  200000 150000 0  250000 150000 0  300000 150000 0  350000 150000 0  400000 150000 0  450000 150000 0  500000 150000 0  550000 150000 0  600000 150000 0  650000 150000 0  700000 150000 0  750000 150000 0  800000 150000 0  850000 150000 0  900000 150000 0  950000 150000 0  1000000 150000 0  0 200000 0  50000 200000 0  100000 200000 0  150000 200000 0  200000 200000 0  250000 200000 0  300000 200000 0  350000 200000 0  400000 200000 0  450000 200000 0  500000 200000 0  550000 200000 0  600000 200000 0  650000 200000 0  700000 200000 0  750000 200000 0  800000 200000 0  850000 200000 0  900000 200000 0  950000 200000 0  1000000 200000 0  0 250000 0  50000 250000 0  100000 250000 0  150000 250000 0  200000 250000 0  250000 250000 0  300000 250000 0  350000 250000 0  400000 250000 0  450000 250000 0  500000 250000 0  550000 250000 0  600000 250000 0  650000 250000 0  700000 250000 0  750000 250000 0  800000 250000 0  850000 250000 0  900000 250000 0  950000 250000 0  1000000 250000 0  0 300000 0  50000 300000 0  100000 300000 0  150000 300000 0  200000 300000 0  250000 300000 0  300000 300000 0  350000 300000 0  400000 300000 0  450000 300000 0  500000 300000 0  550000 300000 0  600000 300000 0  650000 300000 0  700000 300000 0  750000 300000 0  800000 300000 0  850000 300000 0  900000 300000 0  950000 300000 0  1000000 300000 0  0 350000 0  50000 350000 0  100000 350000 0  150000 350000 0  200000 350000 0  250000 350000 0  300000 350000 0  350000 350000 0  400000 350000 0  450000 350000 0  500000 350000 0  550000 350000 0  600000 350000 0  650000 350000 0  700000 350000 0  750000 350000 0  800000 350000 0  850000 350000 0  900000 350000 0  950000 350000 0  1000000 350000 0  0 400000 0  50000 400000 0  100000 400000 0  150000 400000 0  200000 400000 0  250000 400000 0  300000 400000 0  350000 400000 0  400000 400000 0  450000 400000 0  500000 400000 0  550000 400000 0  600000 400000 0  650000 400000 0  700000 400000 0  750000 400000 0  800000 400000 0  850000 400000 0  900000 400000 0  950000 400000 0  1000000 400000 0  0 450000 0  50000 450000 0  100000 450000 0  150000 450000 0  200000 450000 0  250000 450000 0  300000 450000 0  350000 450000 0  400000 450000 0  450000 450000 0  500000 450000 0  550000 450000 0  600000 450000 0  650000 450000 0  700000 450000 0  750000 450000 0  800000 450000 0  850000 450000 0  900000 450000 0  950000 450000 0  1000000 450000 0  0 500000 0  50000 500000 0  100000 500000 0  150000 500000 0  200000 500000 0  250000 500000 0  300000 500000 0  350000 500000 0  400000 500000 0  450000 500000 0  500000 500000 0  550000 500000 0  600000 500000 0  650000 500000 0  700000 500000 0  750000 500000 0  800000 500000 0  850000 500000 0  900000 500000 0  950000 500000 0  1000000 500000 0  0 550000 0  50000 550000 0  100000 550000 0  150000 550000 0  200000 550000 0  250000 550000 0  300000 550000 0  350000 550000 0  400000 550000 0  450000 550000 0  500000 550000 0  550000 550000 0  600000 550000 0  650000 550000 0  700000 550000 0  750000 550000 0  800000 550000 0  850000 550000 0  900000 550000 0  950000 550000 0  1000000 550000 0  0 600000 0  50000 600000 0  100000 600000 0  150000 600000 0  200000 600000 0  250000 600000 0  300000 600000 0  350000 600000 0  400000 600000 0  450000 600000 0  500000 600000 0  550000 600000 0  600000 600000 0  650000 600000 0  700000 600000 0  750000 600000 0  800000 600000 0  850000 600000 0  900000 600000 0  950000 600000 0  1000000 600000 0  0 650000 0  50000 650000 0  100000 650000 0  150000 650000 0  200000 650000 0  250000 650000 0  300000 650000 0  350000 650000 0  400000 650000 0  450000 650000 0  500000 650000 0  550000 650000 0  600000 650000 0  650000 650000 0  700000 650000 0  750000 650000 0  800000 650000 0  850000 650000 0  900000 650000 0  950000 650000 0  1000000 650000 0  0 700000 0  50000 700000 0  100000 700000 0  150000 700000 0  200000 700000 0  250000 700000 0  300000 700000 0  350000 700000 0  400000 700000 0  450000 700000 0  500000 700000 0  550000 700000 0  600000 700000 0  650000 700000 0  700000 700000 0  750000 700000 0  800000 700000 0  850000 700000 0  900000 700000 0  950000 700000 0  1000000 700000 0  0 750000 0  50000 750000 0  100000 750000 0  150000 750000 0  200000 750000 0  250000 750000 0  300000 750000 0  350000 750000 0  400000 750000 0  450000 750000 0  500000 750000 0  550000 750000 0  600000 750000 0  650000 750000 0  700000 750000 0  750000 750000 0  800000 750000 0  850000 750000 0  900000 750000 0  950000 750000 0  1000000 750000 0  0 800000 0  50000 800000 0  100000 800000 0  150000 800000 0  200000 800000 0  250000 800000 0  300000 800000 0  350000 800000 0  400000 800000 0  450000 800000 0  500000 800000 0  550000 800000 0  600000 800000 0  650000 800000 0  700000 800000 0  750000 800000 0  800000 800000 0  850000 800000 0  900000 800000 0  950000 800000 0  1000000 800000 0  0 850000 0  50000 850000 0  100000 850000 0  150000 850000 0  200000 850000 0  250000 850000 0  300000 850000 0  350000 850000 0  400000 850000 0  450000 850000 0  500000 850000 0  550000 850000 0  600000 850000 0  650000 850000 0  700000 850000 0  750000 850000 0  800000 850000 0  850000 850000 0  900000 850000 0  950000 850000 0  1000000 850000 0  0 900000 0  50000 900000 0  100000 900000 0  150000 900000 0  200000 900000 0  250000 900000 0  300000 900000 0  350000 900000 0  400000 900000 0  450000 900000 0  500000 900000 0  550000 900000 0  600000 900000 0  650000 900000 0  700000 900000 0  750000 900000 0  800000 900000 0  850000 900000 0  900000 900000 0  950000 900000 0  1000000 900000 0  0 950000 0  50000 950000 0  100000 950000 0  150000 950000 0  200000 950000 0  250000 950000 0  300000 950000 0  350000 950000 0  400000 950000 0  450000 950000 0  500000 950000 0  550000 950000 0  600000 950000 0  650000 950000 0  700000 950000 0  750000 950000 0  800000 950000 0  850000 950000 0  900000 950000 0  950000 950000 0  1000000 950000 0  0 1000000 0  50000 1000000 0  100000 1000000 0  150000 1000000 0  200000 1000000 0  250000 1000000 0  300000 1000000 0  350000 1000000 0  400000 1000000 0  450000 1000000 0  500000 1000000 0  550000 1000000 0  600000 1000000 0  650000 1000000 0  700000 1000000 0  750000 1000000 0  800000 1000000 0  850000 1000000 0  900000 1000000 0  950000 1000000 0  1000000 1000000 0  0 1050000 0  50000 1050000 0  100000 1050000 0  150000 1050000 0  200000 1050000 0  250000 1050000 0  300000 1050000 0  350000 1050000 0  400000 1050000 0  450000 1050000 0  500000 1050000 0  550000 1050000 0  600000 1050000 0  650000 1050000 0  700000 1050000 0  750000 1050000 0  800000 1050000 0  850000 1050000 0  900000 1050000 0  950000 1050000 0  1000000 1050000 0  0 1100000 0  50000 1100000 0  100000 1100000 0  150000 1100000 0  200000 1100000 0  250000 1100000 0  300000 1100000 0  350000 1100000 0  400000 1100000 0  450000 1100000 0  500000 1100000 0  550000 1100000 0  600000 1100000 0  650000 1100000 0  700000 1100000 0  750000 1100000 0  800000 1100000 0  850000 1100000 0  900000 1100000 0  950000 1100000 0  1000000 1100000 0  0 1150000 0  50000 1150000 0  100000 1150000 0  150000 1150000 0  200000 1150000 0  250000 1150000 0  300000 1150000 0  350000 1150000 0  400000 1150000 0  450000 1150000 0  500000 1150000 0  550000 1150000 0  600000 1150000 0  650000 1150000 0  700000 1150000 0  750000 1150000 0  800000 1150000 0  850000 1150000 0  900000 1150000 0  950000 1150000 0  1000000 1150000 0  0 1200000 0  50000 1200000 0  100000 1200000 0  150000 1200000 0  200000 1200000 0  250000 1200000 0  300000 1200000 0  350000 1200000 0  400000 1200000 0  450000 1200000 0  500000 1200000 0  550000 1200000 0  600000 1200000 0  650000 1200000 0  700000 1200000 0  750000 1200000 0  800000 1200000 0  850000 1200000 0  900000 1200000 0  950000 1200000 0  1000000 1200000 0  0 1250000 0  50000 1250000 0  100000 1250000 0  150000 1250000 0  200000 1250000 0  250000 1250000 0  300000 1250000 0  350000 1250000 0  400000 1250000 0  450000 1250000 0  500000 1250000 0  550000 1250000 0  600000 1250000 0  650000 1250000 0  700000 1250000 0  750000 1250000 0  800000 1250000 0  850000 1250000 0  900000 1250000 0  950000 1250000 0  1000000 1250000 0  0 1300000 0  50000 1300000 0  100000 1300000 0  150000 1300000 0  200000 1300000 0  250000 1300000 0  300000 1300000 0  350000 1300000 0  400000 1300000 0  450000 1300000 0  500000 1300000 0  550000 1300000 0  600000 1300000 0  650000 1300000 0  700000 1300000 0  750000 1300000 0  800000 1300000 0  850000 1300000 0  900000 1300000 0  950000 1300000 0  1000000 1300000 0  0 1350000 0  50000 1350000 0  100000 1350000 0  150000 1350000 0  200000 1350000 0  250000 1350000 0  300000 1350000 0  350000 1350000 0  400000 1350000 0  450000 1350000 0  500000 1350000 0  550000 1350000 0  600000 1350000 0  650000 1350000 0  700000 135
[...]
<PointData  Vectors="f_1505"> 
<DataArray  type="Float64"  Name="f_1505"  NumberOfComponents="3" format="ascii">-8.0017303352499075e-11 7.9107728297345380e-11 0.0000000000000000e+00  -1.4828707659168328e-10 6.6107251216850142e-11 0.0000000000000000e+00  -2.6919276719982319e-10 6.1114563806294625e-11 0.0000000000000000e+00  -3.8561419416216726e-10 5.6777532938274653e-11 0.0000000000000000e+00  -4.9205888698067700e-10 5.1545818482008239e-11 0.0000000000000000e+00  -5.8551413485054035e-10 4.5285940586796157e-11 0.0000000000000000e+00  -6.6349494298577494e-10 3.8079956706549768e-11 0.0000000000000000e+00  -7.2396869144298183e-10 3.0079034037774152e-11 0.0000000000000000e+00  -7.6536934370817993e-10 2.1473467976730679e-11 0.0000000000000000e+00  -7.8663536976649646e-10 1.2476954163806350e-11 0.0000000000000000e+00  -7.8723887753611861e-10 3.3159261322493650e-12 0.0000000000000000e+00  -7.6720019065385320e-10 -5.7789662822543968e-12 0.0000000000000000e+00  -7.2708700390876598e-10 -1.4580497981197809e-11 0.0000000000000000e+00  -6.6799828788871103e-10 -2.2872203074214247e-11 0.0000000000000000e+00  -5.9153562757143668e-10 -3.0456174498869344e-11 0.0000000000000000e+00  -4.9977815182947198e-10 -3.7164641716008031e-11 0.0000000000000000e+00  -3.9534624640316137e-10 -4.2889174249663131e-11 0.0000000000000000e+00  -2.8194722963815223e-10 -4.7668183857401598e-11 0.0000000000000000e+00  -1.6700775617412229e-10 -5.1630658444366930e-11 0.0000000000000000e+00  -7.2949510273214647e-11 -5.0408189981374793e-11 0.0000000000000000e+00  -3.3397670117307163e-11 -3.0213501519897830e-11 0.0000000000000000e+00  -6.7684207052177323e-11 1.4315411105640575e-10 0.0000000000000000e+00  -1.2540243553564664e-10 1.2489435154140714e-10 0.0000000000000000e+00  -2.2274324601335325e-10 1.2648087632751596e-10 0.0000000000000000e+00  -3.2889304835203250e-10 1.2008516218231731e-10 0.0000000000000000e+00  -4.2965536666003493e-10 1.0926506460467908e-10 0.0000000000000000e+00  -5.2012488882131946e-10 9.5167353361641538e-11 0.0000000000000000e+00  -5.9739980849233275e-10 7.8439657399558420e-11 0.0000000000000000e+00  -6.5926861079509195e-10 5.9627295669124558e-11 0.0000000000000000e+00  -7.0404087156025250e-10 3.9270675384801118e-11 0.0000000000000000e+00  -7.3052927013172129e-10 1.7928043836639417e-11 0.0000000000000000e+00  -7.3805637011379161e-10 -3.8253905204143413e-12 0.0000000000000000e+00  -7.2646273160343394e-10 -2.5406349231724824e-11 0.0000000000000000e+00  -6.9610938056890755e-10 -4.6234682111693687e-11 0.0000000000000000e+00  -6.4787325567533133e-10 -6.5744090925834469e-11 0.0000000000000000e+00  -5.8313860571501244e-10 -8.3389721250228542e-11 0.0000000000000000e+00  -5.0379692372869444e-10 -9.8647659785109950e-11 0.0000000000000000e+00  -4.1230149969014561e-10 -1.1099062058813001e-10 0.0000000000000000e+00  -3.1195799718122641e-10 -1.1976155612771633e-10 0.0000000000000000e+00  -2.0822249762685527e-10 -1.2344989989830522e-10 0.0000000000000000e+00  -1.1450115008146281e-10 -1.1618278498277671e-10 0.0000000000000000e+00  -5.6013648753366771e-11 -6.6221409185163576e-11 0.0000000000000000e+00  -6.5847136860543519e-11 2.5702240522013811e-10 0.0000000000000000e+00  -1.2849415148383625e-10 2.2035959865124539e-10 0.0000000000000000e+00  -2.2261030615171816e-10 2.1922500499764324e-10 0.0000000000000000e+00  -3.2141456011864875e-10 2.0870320564315389e-10 0.0000000000000000e+00  -4.1517829774244495e-10 1.9044881152553560e-10 0.0000000000000000e+00  -4.9959760840483897e-10 1.6611631178291046e-10 0.0000000000000000e+00  -5.7176223497389307e-10 1.3694125728294805e-10 0.0000000000000000e+00  -6.2950407701776556e-10 1.0397080363415000e-10 0.0000000000000000e+00  -6.7119563822005387e-10 6.8210407066348259e-11 0.0000000000000000e+00  -6.9570993358074521e-10 3.0675014240628373e-11 0.0000000000000000e+00  -7.0241679427163514e-10 -7.6019419592862637e-12 0.0000000000000000e+00  -6.9118483600139955e-10 -4.5576520783126408e-11 0.0000000000000000e+00  -6.6238198867220484e-10 -8.2207891270963725e-11 0.0000000000000000e+00  -6.1687321931321110e-10 -1.1647107396359301e-10 0.0000000000000000e+00  -5.5601801673232595e-10 -1.4736216524240491e-10 0.0000000000000000e+00  -4.8167795013601993e-10 -1.7388399356832573e-10 0.0000000000000000e+00  -3.9626914448834437e-10 -1.9498287478882818e-10 0.0000000000000000e+00  -3.0298748608485453e-10 -2.0935791421987315e-10 0.0000000000000000e+00  -2.0668081117939791e-10 -2.1492894522630763e-10 0.0000000000000000e+00  -1.1807097204641608e-10 -2.0814884197730789e-10 0.0000000000000000e+00  -6.0170454703037438e-11 -1.5040512444479079e-10 0.0000000000000000e+00  -6.7616279371199470e-11 3.6944025861507579e-10 0.0000000000000000e+00  -1.2816031219091840e-10 3.2701442448652040e-10 0.0000000000000000e+00  -2.2129968271979580e-10 3.1915273315608689e-10 0.0000000000000000e+00  -3.1769519591451915e-10 3.0245090724182032e-10 0.0000000000000000e+00  -4.0804735881696963e-10 2.7593382311269745e-10 0.0000000000000000e+00  -4.8885131528267335e-10 2.4091134170716163e-10 0.0000000000000000e+00  -5.5768004749604487e-10 1.9887961363152556e-10 0.0000000000000000e+00  -6.1258180348895200e-10 1.5130295402036203e-10 0.0000000000000000e+00  -6.5205032206531636e-10 9.9642456323547910e-11 0.0000000000000000e+00  -6.7503917593632464e-10 4.5381367850155855e-11 0.0000000000000000e+00  -6.8097287695753891e-10 -9.9719860319328454e-12 0.0000000000000000e+00  -6.6975290372040929e-10 -6.4895491266918031e-11 0.0000000000000000e+00  -6.4175893698179299e-10 -1.1787024455207708e-10 0.0000000000000000e+00  -5.9784579466559491e-10 -1.6739662427849794e-10 0.0000000000000000e+00  -5.3933699109464083e-10 -2.1200268604625690e-10 0.0000000000000000e+00  -4.6801857335141814e-10 -2.5023571194290677e-10 0.0000000000000000e+00  -3.8615065883927318e-10 -2.8062462804622277e-10 0.0000000000000000e+00  -2.9658489828213000e-10 -3.0160986732073154e-10 0.0000000000000000e+00  -2.0343144631943935e-10 -3.1146933578269830e-10 0.0000000000000000e+00  -1.1656809339369847e-10 -3.0844443900581953e-10 0.0000000000000000e+00  -6.1296346263508499e-11 -2.5290557843733631e-10 0.0000000000000000e+00  -7.1324808747212334e-11 4.7988227795509416e-10 0.0000000000000000e+00  -1.2851305658782418e-10 4.3437274329098659e-10 0.0000000000000000e+00  -2.2094617111046647e-10 4.2025291657807458e-10 0.0000000000000000e+00  -3.1670580324356899e-10 3.9629226573105369e-10 0.0000000000000000e+00  -4.0592213132810052e-10 3.6085624309591507e-10 0.0000000000000000e+00  -4.8519597085530980e-10 3.1491288783051226e-10 0.0000000000000000e+00  -5.5237220854836714e-10 2.6004184732317337e-10 0.0000000000000000e+00  -6.0572372203304573e-10 1.9801035668188308e-10 0.0000000000000000e+00  -6.4389133669251533e-10 1.3067694239060749e-10 0.0000000000000000e+00  -6.6592279832230905e-10 5.9962748186469906e-11 0.0000000000000000e+00  -6.7130226061992419e-10 -1.2168301246914898e-11 0.0000000000000000e+00  -6.5996428195897680e-10 -8.3731846268182395e-11 0.0000000000000000e+00  -6.3229721150846120e-10 -1.5274753411328117e-10 0.0000000000000000e+00  -5.8913827405262649e-10 -2.1726270236941633e-10 0.0000000000000000e+00  -5.3176032758863260e-10 -2.7537229629776365e-10 0.0000000000000000e+00  -4.6185089126075855e-10 -3.2523365294175375e-10 0.0000000000000000e+00  -3.8149947181063787e-10 -3.6508243823967265e-10 0.0000000000000000e+00  -2.9330320838524552e-10 -3.9328020011059960e-10 0.0000000000000000e+00  -2.0116731337595088e-10 -4.0841423905246611e-10 0.0000000000000000e+00  -1.1549733416328974e-10 -4.0932412736070668e-10 0.0000000000000000e+00  -6.4175344914746475e-11 -3.5646821361878965e-10 0.0000000000000000e+00  -7.6642176171812298e-11 5.8970920363399487e-10 0.0000000000000000e+00  -1.3026285923026333e-10 5.4161765185054160e-10 0.0000000000000000e+00  -2.2243159824297563e-10 5.2195095280016595e-10 0.0000000000000000e+00  -3.1852654090385424e-10 4.9041433031457898e-10 0.0000000000000000e+00  -4.0793220773956367e-10 4.4558667259116334e-10 0.0000000000000000e+00  -4.8706954053384745e-10 3.8840792362203468e-10 0.0000000000000000e+00  -5.5384547361000540e-10 3.2056987469265316e-10 0.0000000000000000e+00  -6.0666014007824328e-10 2.4409852884564105e-10 0.0000000000000000e+00  -6.4427057425799600e-10 1.6120522045461938e-10 0.0000000000000000e+00  -6.6581135989847491e-10 7.4214865745511473e-11 0.0000000000000000e+00  -6.7082427972935282e-10 -1.4479844010224671e-11 0.0000000000000000e+00  -6.5927506171703157e-10 -1.0245619675078948e-10 0.0000000000000000e+00  -6.3155785382669548e-10 -1.8729688335566629e-10 0.0000000000000000e+00  -5.8848922700696740e-10 -2.6662482493896115e-10 0.0000000000000000e+00  -5.3129179982096750e-10 -3.3813883689699756e-10 0.0000000000000000e+00  -4.6156992731967517e-10 -3.9965438768419375e-10 0.0000000000000000e+00  -3.8130343685925962e-10 -4.4916146479755999e-10 0.0000000000000000e+00  -2.9300570637994013e-10 -4.8492371647908271e-10 0.0000000000000000e+00  -2.0072067835132630e-10 -5.0558168307639147e-10 0.0000000000000000e+00  -1.1575496014523474e-10 -5.1002858641135443e-10 0.0000000000000000e+00  -6.8631793754537567e-11 -4.5867093358011952e-10 0.0000000000000000e+00  -8.3455859922394487e-11 7.0015968799120548e-10 0.0000000000000000e+00  -1.3339547278446224e-10 6.4952086519574792e-10 0.0000000000000000e+00  -2.2580001582169118e-10 6.2465430034462954e-10 0.0000000000000000e+00  -3.2290611469554515e-10 5.8549767984594123e-10 0.0000000000000000e+00  -4.1330362197657062e-10 5.3096783604116609e-10 0.0000000000000000e+00  -4.9316251277950149e-10 4.6222120723330315e-10 0.0000000000000000e+00  -5.6034840775082621e-10 3.8116229443286356e-10 0.0000000000000000e+00  -6.1330902937683412e-10 2.9009363029436123e-10 0.0000000000000000e+00  -6.5087458649590537e-10 1.9156568074174989e-10 0.0000000000000000e+00  -6.7224726265164122e-10 8.8284826810566378e-11 0.0000000000000000e+00  -6.7701848632074789e-10 -1.6951282860660150e-11 0.0000000000000000e+00  -6.6518141189065121e-10 -1.2130554585844367e-10 0.0000000000000000e+00  -6.3713423754760710e-10 -2.2194803709670441e-10 0.0000000000000000e+00  -5.9367453415534108e-10 -3.1610224593609388e-10 0.0000000000000000e+00  -5.3598511126812315e-10 -4.0109532923653077e-10 0.0000000000000000e+00  -4.6561719207579613e-10 -4.7441849763922099e-10 0.0000000000000000e+00  -3.8450704262090409e-10 -5.3380708212124177e-10 0.0000000000000000e+00  -2.9519865537463178e-10 -5.7735022579905145e-10 0.0000000000000000e+00  -2.0201278931668779e-10 -6.0356161504206750e-10 0.0000000000000000e+00  -1.1727891081567521e-10 -6.1119346637137805e-10 0.0000000000000000e+00  -7.4496009222579121e-11 -5.6020473521276304e-10 0.0000000000000000e+00  -9.1723862248496392e-11 8.1217601198929151e-10 0.0000000000000000e+00  -1.3767667064563539e-10 7.5888282059995422e-10 0.0000000000000000e+00  -2.3066568599780874e-10 7.2892534787404610e-10 0.0000000000000000e+00  -3.2921554915936623e-10 6.8208606079612256e-10 0.0000000000000000e+00  -4.2104828445965437e-10 6.1760355728467630e-10 0.0000000000000000e+00  -5.0207682325452029e-10 5.3695997035549332e-10 0.0000000000000000e+00  -5.7009657567915847e-10 4.4236137770090583e-10 0.0000000000000000e+00  -6.2356621893031160e-10 3.3642839091941240e-10 0.0000000000000000e+00  -6.6136180704899385e-10 2.2205870787406745e-10 0.0000000000000000e+00  -6.8273787402690494e-10 1.0233056091173028e-10 0.0000000000000000e+00  -6.8732805508366856e-10 -1.9571469093032016e-11 0.0000000000000000e+00  -6.7514915560127092e-10 -1.4041731593562433e-10 0.0000000000000000e+00  -6.4660172014226869e-10 -2.5698609175434034e-10 0.0000000000000000e+00  -6.0246607457320270e-10 -3.6612074774366362e-10 0.0000000000000000e+00  -5.4389460579499482e-10 -4.6478857203832512e-10 0.0000000000000000e+00  -4.7240832906263689e-10 -5.5015343407348865e-10 0.0000000000000000e+00  -3.8994040355147419e-10 -6.1966534508711601e-10 0.0000000000000000e+00  -2.9911772617126086e-10 -6.7116812149479588e-10 0.0000000000000000e+00  -2.0458591576886395e-10 -7.0294781594913177e-10 0.0000000000000000e+00  -1.1979565226487653e-10 -7.1355062861041660e-10 0.0000000000000000e+00  -8.1717529996725333e-11 -6.6213039560666964e-10 0.0000000000000000e+00  -1.0144274041316023e-10 9.2632411828947746e-10 0.0000000000000000e+00  -1.4277389885684168e-10 8.7025498515105057e-10 0.0000000000000000e+00  -2.3641007213144381e-10 8.3514626985714155e-10 0.0000000000000000e+00  -3.3653713881156499e-10 7.8047183910317608e-10 0.0000000000000000e+00  -4.2990885371419927e-10 7.0576958104883640e-10 0.0000000000000000e+00  -5.1218885086485260e-10 6.1289390150459836e-10 0.0000000000000000e+00  -5.8111145935523325e-10 5.0441248738410878e-10 0.0000000000000000e+00  -6.3514563841994280e-10 3.8330406196783900e-10 0.0000000000000000e+00  -6.7320987672286145e-10 2.5282911754700970e-10 0.0000000000000000e+00  -6.9460899322007660e-10 1.1643441638081319e-10 0.0000000000000000e+00  -6.9901772276057096e-10 -2.2323584907014497e-11 0.0000000000000000e+00  -6.8647471840709524e-10 -1.5984237331081917e-10 0.0000000000000000e+00  -6.5737980415664161e-10 -2.9253061320505532e-10 0.0000000000000000e+00  -6.1249307979746316e-10 -4.1686603677528603e-10 0.0000000000000000e+00  -5.5293648949461863e-10 -5.2946071988397577e-10 0.0000000000000000e+00  -4.8020657734178397e-10 -6.2713923551078855e-10 0.0000000000000000e+00  -3.9624475489509381e-10 -7.0703264568783199e-10 0.0000000000000000e+00  -3.0377310964925161e-10 -7.6668537429996671e-10 0.0000000000000000e+00  -2.0777882354982137e-10 -8.0409867176070741e-10 0.0000000000000000e+00  -1.2294585828601708e-10 -8.1759086317232158e-10 0.0000000000000000e+00  -9.0290638889486389e-11 -7.6526054596705143e-10 0.0000000000000000e+00  -1.1263293646505490e-10 1.0427399482610149e-09 0.0000000000000000e+00  -1.4828256881778732e-10 9.8383063924535719e-10 0.0000000000000000e+00  -2.4224272417192275e-10 9.4337727073641795e-10 0.0000000000000000e+00  -3.4370113889826550e-10 8.8061881610597439e-10 0.0000000000000000e+00  -4.3833217651903390e-10 7.9538581695734027e-10 0.0000000000000000e+00  -5.2156140043202076e-10 6.8993459990019325e-10 0.0000000000000000e+00  -5.9109233751857754e-10 5.6723551762850161e-10 0.0000000000000000e+00  -6.4543063529994525e-10 4.3065700544659454e-10 0.0000000000000000e+00  -6.8355757457852482e-10 2.8383559725522279e-10 0.0000000000000000e+00  -7.0484302411045933e-10 1.3058182061788931e-10 0.0000000000000000e+00  -7.0901136035712114e-10 -2.5193871886205524e-11 0.0000000000000000e+00  -6.9612443020932246e-10 -1.7954091951060952e-10 0.0000000000000000e+00  -6.6657550779712801e-10 -3.2852148001382223e-10 0.0000000000000000e+00  -6.2109304655188450e-10 -4.6826486542386984e-10 0.0000000000000000e+00  -5.6075425442907103e-10 -5.9503176807008246e-10 0.0000000000000000e+00  -4.8701657931717595e-10 -7.0529423182555222e-10 0.0000000000000000e+00  -4.0181565935827712e-10 -7.9583349245029899e-10 0.0000000000000000e+00  -3.0795619119560156e-10 -8.6385200374335787e-10 0.0000000000000000e+00  -2.1077179635354156e-10 -9.0702731140174971e-10 0.0000000000000000e+00  -1.2630231982694176e-10 -9.2344015644103945e-10 0.0000000000000000e+00  -1.0023075990327672e-10 -8.7001813238377850e-10 0.0000000000000000e+00  -1.2533069287059139e-10 1.1610639649295952e-09 0.0000000000000000e+00  -1.5372153821175026e-10 1.0993591018999323e-09 0.0000000000000000e+00  -2.4720209543925840e-10 1.0532567077065032e-09 0.0000000000000000e+00  -3.4927442590535791e-10 9.8207876574332762e-10 0.0000000000000000e+00  -4.4442451074124687e-10 8.8596300620782551e-10 0.0000000000000000e+00  -5.2785724451443320e-10 7.6759942421759430e-10 0.0000000000000000e+00  -5.9729295242190131e-10 6.3039543414560209e-10 0.0000000000000000e+00  -6.5132389642858792e-10 4.7813336380852572e-10 0.0000000000000000e+00  -6.8903780109481837e-10 3.1483185578392091e-10 0.0000000000000000e+00  -7.0990285381789573e-10 1.4465218763085554e-10 0.0000000000000000e+00  -7.1371302672273405e-10 -2.8168996985832791e-11 0.0000000000000000e+00  -7.0055825072973736e-10 -1.9936829790243649e-10 0.0000000000000000e+00  -6.7081516227854139e-10 -3.6469537475616201e-10 0.0000000000000000e+00  -6.2515767091370329e-10 -5.1995567000728826e-10 0.0000000000000000e+00  -5.6458631905491157e-10 -6.6106710059376191e-10 0.0000000000000000e+00  -4.9048284394820056e-10 -7.8413857866147662e-10 0.0000000000000000e+00  -4.0473996086051942e-10 -8.8557314178393648e-10 0.0000000000000000e+00  -3.1021347535839630e-10 -9.6219252333940219e-10 0.0000000000000000e+00  -2.1258035767616623e-10 -1.0113152698037489e-09 0.0000000000000000e+00  -1.2936210350456157e-10 -1.0307757861728403e-09 0.0000000000000000e+00  -1.1156702557097367e-10 -9.7637447955726534e-10 0.0000000000000000e+00  -1.3958334032369996e-10 1.2803541230856678e-09 0.0000000000000000e+00  -1.5851633421946007e-10 1.2160540425532809e-09 0.0000000000000000e+00  -2.5012823520017620e-10 1.1638997821911588e-09 0.0000000000000000e+00  -3.5151692267802750e-10 1.0838937542755732e-09 0.0000000000000000e+00  -4.4588162553378597e-10 9.7651939844913527e-10 0.0000000000000000e+00  -5.2823613621180282e-10 8.4494370567569101e-10 0.0000000000000000e+00  -5.9638541685455547e-10 6.9304761275372800e-10 0.0000000000000000e+00  -6.4908351914209052e-10 5.2504692868391649e-10 0.0000000000000000e+00  -6.8559356293896542e-10 3.4533860461949331e-10 0.0000000000000000e+00  -7.0553604688366746e-10 1.5840716801653239e-10 0.0000000000000000e+00  -7.0880744305230455e-10 -3.1230317830220224e-11 0.0000000000000000e+00  -6.9553421389789251e-10 -2.1905227370389011e-10 0.0000000000000000e+00  -6.6606019248123422e-10 -4.0054827430996779e-10 0.0000000000000000e+00  -6.2096707607521059e-10 -5.7123940051038719e-10 0.0000000000000000e+00  -5.6112539013343214e-10 -7.2671933806647670e-10 0.0000000000000000e+00  -4.8777961074882248e-10 -8.6272786627787274e-10 0.0000000000000000e+00  -4.0271810092441336e-10 -9.7526153351139100e-10 0.0000000000000000e+00  -3.0879739456870533e-10 -1.0607192889242696e-09 0.0000000000000000e+00  -2.1202538078353718e-10 -1.1160196960168304e-09 0.0000000000000000e+00  -1.3152859708297174e-10 -1.1387381054733008e-09 0.0000000000000000e+00  -1.2433868300482298e-10 -1.0837821486407047e-09 0.0000000000000000e+00  -1.5544705773833275e-10 1.3989729274651948e-09 0.0000000000000000e+00  -1.6197621011719776e-10 1.3324839376730976e-09 0.0000000000000000e+00  -2.4961974549616140e-10 1.2737813230758370e-09 0.0000000000000000e+00  -3.4831550760233267e-10 1.1844775464317621e-09 0.0000000000000000e+00  -4.3989448541615197e-10 1.0654685833751142e-09 0.0000000000000000e+00  -5.1922806489508883e-10 9.2046067272478984e-10 0.0000000000000000e+00  -5.8430067459439576e-10 7.5385339785840684e-10 0.0000000000000000e+00  -6.3413456646015155e-10 5.7031350032814560e-10 0.0000000000000000e+00  -6.6826763041773324e-10 3.7459994299966360e-10 0.0000000000000000e+00  -6.8655131001058472e-10 1.7147169809589625e-10 0.0000000000000000e+00  -6.8903259253756348e-10 -3.4346983243631993e-11 0.0000000000000000e+00  -6.7588643138768311e-10 -2.3816106098144473e-10 0.0000000000000000e+00  -6.4739926160602045e-10 -4.3528109933411822e-10 0.0000000000000000e+00  -6.0400383605169791e-10 -6.2100680328722043e-10 0.0000000000000000e+00  -5.4636046813011851e-10 -7.9064157382032542e-10 0.0000000000000000e+00  -4.7548440635395081e-10 -9.3955596228072038e-10 0.0000000000000000e+00  -3.9296931186073360e-10 -1.0633084763165360e-09 0.0000000000000000e+00  -3.0159959899510930e-10 -1.1578227744358929e-09 0.0000000000000000e+00  -2.0768929570596355e-10 -1.2195627892270561e-09 0.0000000000000000e+00  -1.3208751857646722e-10 -1.2458241879385274e-09 0.0000000000000000e+00  -1.3859275331982702e-10 -1.1910855499140689e-09 0.0000000000000000e+00  -1.7298743769081994e-10 1.5144446636420964e-09 0.0000000000000000e+00  -1.6326713428040578e-10 1.4464376469715376e-09 0.0000000000000000e+00  -2.4397944938920022e-10 1.3805941003843265e-09 0.0000000000000000e+00  -3.3709933486531818e-10 1.2814695692068120e-09 0.0000000000000000e+00  -4.2303056258417603e-10 1.1504755736753742e-09 0.0000000000000000e+00  -4.96578