<?xml version="1.0"?>
<VTKFile type="UnstructuredGrid"  version="0.1"  >
<UnstructuredGrid>
<Piece  NumberOfPoints="651" NumberOfCells="1200">
<Points>
<DataArray  type="Float64"  NumberOfComponents="3"  format="ascii">0 0 0  50000 0 0  100000 0 0  150000 0 0  200000 0 0  250000 0 0  300000 0 0  350000 0 0  400000 0 0  450000 0 0  500000 0 0  550000 0 0  600000 0 0  650000 0 0  700000 0 0  750000 0 0  800000 0 0  850000 0 0  900000 0 0  950000 0 0  1000000 0 0  0 50000 0  50000 50000 0  100000 50000 0  150000 50000 0  200000 50000 0  250000 50000 0  300000 50000 0  350000 50000 0  400000 50000 0  450000 50000 0  500000 50000 0  550000 50000 0  600000 50000 0  650000 50000 0  700000 50000 0  750000 50000 0  800000 50000 0  850000 50000 0  900000 50000 0  950000 50000 0  1000000 50000 0  0 100000 0  50000 100000 0  100000 100000 0  150000 100000 0  200000 100000 0  250000 100000 0  300000 100000 0  350000 100000 0  400000 100000 0  450000 100000 0  500000 100000 0  550000 100000 0  600000 100000 0  650000 100000 0  700000 100000 0  750000 100000 0  800000 100000 0  850000 100000 0  900000 100000 0  950000 100000 0  1000000 100000 0  0 150000 0  50000 150000 0  100000 150000 0  150000 150000 0  200000 150000 0  250000 150000 0  300000 150000 0  350000 150000 0  400000 150000 0  450000 150000 0  500000 150000 0  550000 150000 0  600000 150000 0  650000 150000 0  700000 150000 0  750000 150000 0  800000 150000 0  850000 150000 0  900000 150000 0  950000 150000 0  1000000 150000 0  0 200000 0  50000 200000 0  100000 200000 0  150000 200000 0  200000 200000 0  250000 200000 0  300000 200000 0  350000 200000 0  400000 200000 0  450000 200000 0  500000 200000 0  550000 200000 0  600000 200000 0  650000 200000 0  700000 200000 0  750000 200000 0  800000 200000 0  850000 200000 0  900000 200000 0  950000 200000 0  1000000 200000 0  0 250000 0  50000 250000 0  100000 250000 0  150000 250000 0  200000 250000 0  250000 250000 0  300000 250000 0  350000 250000 0  400000 250000 0  450000 250000 0  500000 250000 0  550000 250000 0  600000 250000 0  650000 250000 0  700000 250000 0  750000 250000 0  800000 250000 0  850000 250000 0  900000 250000 0  950000 250000 0  1000000 250000 0  0 300000 0  50000 300000 0  100000 300000 0  150000 300000 0  200000 300000 0  250000 300000 0  300000 300000 0  350000 300000 0  400000 300000 0  450000 300000 0  500000 300000 0  550000 300000 0  600000 300000 0  650000 300000 0  700000 300000 0  750000 300000 0  800000 300000 0  850000 300000 0  900000 300000 0  950000 300000 0  1000000 300000 0  0 350000 0  50000 350000 0  100000 350000 0  150000 350000 0  200000 350000 0  250000 350000 0  300000 350000 0  350000 350000 0  400000 350000 0  450000 350000 0  500000 350000 0  550000 350000 0  600000 350000 0  650000 350000 0  700000 350000 0  750000 350000 0  800000 350000 0  850000 350000 0  900000 350000 0  950000 350000 0  1000000 350000 0  0 400000 0  50000 400000 0  100000 400000 0  150000 400000 0  200000 400000 0  250000 400000 0  300000 400000 0  350000 400000 0  400000 400000 0  450000 400000 0  500000 400000 0  550000 400000 0  600000 400000 0  650000 400000 0  700000 400000 0  750000 400000 0  800000 400000 0  850000 400000 0  900000 400000 0  950000 400000 0  1000000 400000 0  0 450000 0  50000 450000 0  100000 450000 0  150000 450000 0  200000 450000 0  250000 450000 0  300000 450000 0  350000 450000 0  400000 450000 0  450000 450000 0  500000 450000 0  550000 450000 0  600000 450000 0  650000 450000 0  700000 450000 0  750000 450000 0  800000 450000 0  850000 450000 0  900000 450000 0  950000 450000 0  1000000 450000 0  0 500000 0  50000 500000 0  100000 500000 0  150000 500000 0  200000 500000 0  250000 500000 0  300000 500000 0  350000 500000 0  400000 500000 0  450000 500000 0  500000 500000 0  550000 500000 0  600000 500000 0  650000 500000 0  700000 500000 0  750000 500000 0  800000 500000 0  850000 500000 0  900000 500000 0  950000 500000 0  1000000 500000 0  0 550000 0  50000 550000 0  100000 550000 0  150000 550000 0  200000 550000 0  250000 550000 0  300000 550000 0  350000 550000 0  400000 550000 0  450000 550000 0  500000 550000 0  550000 550000 0  600000 550000 0  650000 550000 0  700000 550000 0  750000 550000 0  800000 550000 0  850000 550000 0  900000 550000 0  950000 550000 0  1000000 550000 0  0 600000 0  50000 600000 0  100000 600000 0  150000 600000 0  200000 600000 0  250000 600000 0  300000 600000 0  350000 600000 0  400000 600000 0  450000 600000 0  500000 600000 0  550000 600000 0  600000 600000 0  650000 600000 0  700000 600000 0  750000 600000 0  800000 600000 0  850000 600000 0  900000 600000 0  950000 600000 0  1000000 600000 0  0 650000 0  50000 650000 0  100000 650000 0  150000 650000 0  200000 650000 0  250000 650000 0  300000 650000 0  350000 650000 0  400000 650000 0  450000 650000 0  500000 650000 0  550000 650000 0  600000 650000 0  650000 650000 0  700000 650000 0  750000 650000 0  800000 650000 0  850000 650000 0  900000 650000 0  950000 650000 0  1000000 650000 0  0 700000 0  50000 700000 0  100000 700000 0  150000 700000 0  200000 700000 0  250000 700000 0  300000 700000 0  350000 700000 0  400000 700000 0  450000 700000 0  500000 700000 0  550000 700000 0  600000 700000 0  650000 700000 0  700000 700000 0  750000 700000 0  800000 700000 0  850000 700000 0  900000 700000 0  950000 700000 0  1000000 700000 0  0 750000 0  50000 750000 0  100000 750000 0  150000 750000 0  200000 750000 0  250000 750000 0  300000 750000 0  350000 750000 0  400000 750000 0  450000 750000 0  500000 750000 0  550000 750000 0  600000 750000 0  650000 750000 0  700000 750000 0  750000 750000 0  800000 750000 0  850000 750000 0  900000 750000 0  950000 750000 0  1000000 750000 0  0 800000 0  50000 800000 0  100000 800000 0  150000 800000 0  200000 800000 0  250000 800000 0  300000 800000 0  350000 800000 0  400000 800000 0  450000 800000 0  500000 800000 0  550000 800000 0  600000 800000 0  650000 800000 0  700000 800000 0  750000 800000 0  800000 800000 0  850000 800000 0  900000 800000 0  950000 800000 0  1000000 800000 0  0 850000 0  50000 850000 0  100000 850000 0  150000 850000 0  200000 850000 0  250000 850000 0  300000 850000 0  350000 850000 0  400000 850000 0  450000 850000 0  500000 850000 0  550000 850000 0  600000 850000 0  650000 850000 0  700000 850000 0  750000 850000 0  800000 850000 0  850000 850000 0  900000 850000 0  950000 850000 0  1000000 850000 0  0 900000 0  50000 900000 0  100000 900000 0  150000 900000 0  200000 900000 0  250000 900000 0  300000 900000 0  350000 900000 0  400000 900000 0  450000 900000 0  500000 900000 0  550000 900000 0  600000 900000 0  650000 900000 0  700000 900000 0  750000 900000 0  800000 900000 0  850000 900000 0  900000 900000 0  950000 900000 0  1000000 900000 0  0 950000 0  50000 950000 0  100000 950000 0  150000 950000 0  200000 950000 0  250000 950000 0  300000 950000 0  350000 950000 0  400000 950000 0  450000 950000 0  500000 950000 0  550000 950000 0  600000 950000 0  650000 950000 0  700000 950000 0  750000 950000 0  800000 950000 0  850000 950000 0  900000 950000 0  950000 950000 0  1000000 950000 0  0 1000000 0  50000 1000000 0  100000 1000000 0  150000 1000000 0  200000 1000000 0  250000 1000000 0  300000 1000000 0  350000 1000000 0  400000 1000000 0  450000 1000000 0  500000 1000000 0  550000 1000000 0  600000 1000000 0  650000 1000000 0  700000 1000000 0  750000 1000000 0  800000 1000000 0  850000 1000000 0  900000 1000000 0  950000 1000000 0  1000000 1000000 0  0 1050000 0  50000 1050000 0  100000 1050000 0  150000 1050000 0  200000 1050000 0  250000 1050000 0  300000 1050000 0  350000 1050000 0  400000 1050000 0  450000 1050000 0  500000 1050000 0  550000 1050000 0  600000 1050000 0  650000 1050000 0  700000 1050000 0  750000 1050000 0  800000 1050000 0  850000 1050000 0  900000 1050000 0  950000 1050000 0  1000000 1050000 0  0 1100000 0  50000 1100000 0  100000 1100000 0  150000 1100000 0  200000 1100000 0  250000 1100000 0  300000 1100000 0  350000 1100000 0  400000 1100000 0  450000 1100000 0  500000 1100000 0  550000 1100000 0  600000 1100000 0  650000 1100000 0  700000 1100000 0  750000 1100000 0  800000 1100000 0  850000 1100000 0  900000 1100000 0  950000 1100000 0  1000000 1100000 0  0 1150000 0  50000 1150000 0  100000 1150000 0  150000 1150000 0  200000 1150000 0  250000 1150000 0  300000 1150000 0  350000 1150000 0  400000 1150000 0  450000 1150000 0  500000 1150000 0  550000 1150000 0  600000 1150000 0  650000 1150000 0  700000 1150000 0  750000 1150000 0  800000 1150000 0  850000 1150000 0  900000 1150000 0  950000 1150000 0  1000000 1150000 0  0 1200000 0  50000 1200000 0  100000 1200000 0  150000 1200000 0  200000 1200000 0  250000 1200000 0  300000 1200000 0  350000 1200000 0  400000 1200000 0  450000 1200000 0  500000 1200000 0  550000 1200000 0  600000 1200000 0  650000 1200000 0  700000 1200000 0  750000 1200000 0  800000 1200000 0  850000 1200000 0  900000 1200000 0  950000 1200000 0  1000000 1200000 0  0 1250000 0  50000 1250000 0  100000 1250000 0  150000 1250000 0  200000 1250000 0  250000 1250000 0  300000 1250000 0  350000 1250000 0  400000 1250000 0  450000 1250000 0  500000 1250000 0  550000 1250000 0  600000 1250000 0  650000 1250000 0  700000 1250000 0  750000 1250000 0  800000 1250000 0  850000 1250000 0  900000 1250000 0  950000 1250000 0  1000000 1250000 0  0 1300000 0  50000 1300000 0  100000 1300000 0  150000 1300000 0  200000 1300000 0  250000 1300000 0  300000 1300000 0  350000 1300000 0  400000 1300000 0  450000 1300000 0  500000 1300000 0  550000 1300000 0  600000 1300000 0  650000 1300000 0  700000 1300000 0  750000 1300000 0  800000 1300000 0  850000 1300000 0  900000 1300000 0  950000 1300000 0  1000000 1300000 0  0 1350000 0  50000 1350000 0  100000 1350000 0  150000 1350000 0  200000 1350000 0  250000 1350000 0  300000 1350000 0  350000 1350000 0  400000 1350000 0  450000 1350000 0  500000 1350000 0  550000 1350000 0  600000 1350000 0  650000 1350000 0  700000 135
[...]
<PointData  Vectors="f_1505"> 
<DataArray  type="Float64"  Name="f_1505"  NumberOfComponents="3" format="ascii">-8.2547090543583047e-11 6.6066557498762968e-11 0.0000000000000000e+00  -1.5092063252886709e-10 5.2945172823030195e-11 0.0000000000000000e+00  -2.7246323532966533e-10 4.7560435925022231e-11 0.0000000000000000e+00  -3.8992737636388890e-10 4.2907375860879260e-11 0.0000000000000000e+00  -4.9749565496066525e-10 3.7495182875668096e-11 0.0000000000000000e+00  -5.9203305927421173e-10 3.1157794820661148e-11 0.0000000000000000e+00  -6.7099100598014296e-10 2.3957601915231629e-11 0.0000000000000000e+00  -7.3230819019582356e-10 1.6035843756399509e-11 0.0000000000000000e+00  -7.7440845806141795e-10 7.5767370102075523e-12 0.0000000000000000e+00  -7.9622832405601924e-10 -1.2104777530236091e-12 0.0000000000000000e+00  -7.9723968966061627e-10 -1.0103138496360035e-11 0.0000000000000000e+00  -7.7746086637390827e-10 -1.8874158432965915e-11 0.0000000000000000e+00  -7.3745463764310132e-10 -2.7299996054292232e-11 0.0000000000000000e+00  -6.7831340511632587e-10 -3.5168414983535412e-11 0.0000000000000000e+00  -6.0163416158805375e-10 -4.2287079567676765e-11 0.0000000000000000e+00  -5.0949991674849767e-10 -4.8496484889049121e-11 0.0000000000000000e+00  -4.0455458523554208e-10 -5.3700255431904606e-11 0.0000000000000000e+00  -2.9056943602700561e-10 -5.7949245034281358e-11 0.0000000000000000e+00  -1.7511302727646514e-10 -6.1360707803559290e-11 0.0000000000000000e+00  -8.0878525743534705e-11 -5.9458780966914567e-11 0.0000000000000000e+00  -4.1186895193556263e-11 -3.8776534109915220e-11 0.0000000000000000e+00  -7.0400795933054494e-11 1.2905866836177390e-10 0.0000000000000000e+00  -1.2363304138089590e-10 1.1944586701955709e-10 0.0000000000000000e+00  -2.1831122478546939e-10 1.2429819432118134e-10 0.0000000000000000e+00  -3.2517820689271603e-10 1.1819857387513141e-10 0.0000000000000000e+00  -4.2718401311940241e-10 1.0744751339309124e-10 0.0000000000000000e+00  -5.1888784569628721e-10 9.3364611548116234e-11 0.0000000000000000e+00  -5.9738610656714884e-10 7.6630643340109359e-11 0.0000000000000000e+00  -6.6046357200140226e-10 5.7800868901828500e-11 0.0000000000000000e+00  -7.0641190808368285e-10 3.7419442805845718e-11 0.0000000000000000e+00  -7.3402316901099440e-10 1.6045898068871038e-11 0.0000000000000000e+00  -7.4259748968491531e-10 -5.7454290644170932e-12 0.0000000000000000e+00  -7.3195039850881562e-10 -2.7374281414429618e-11 0.0000000000000000e+00  -7.0241399771856503e-10 -4.8265709506331492e-11 0.0000000000000000e+00  -6.5483029024612341e-10 -6.7861275676914806e-11 0.0000000000000000e+00  -5.9053908309768711e-10 -8.5628273010993292e-11 0.0000000000000000e+00  -5.1137199760597809e-10 -1.0106334024416907e-10 0.0000000000000000e+00  -4.1969848133347048e-10 -1.1367734832833706e-10 0.0000000000000000e+00  -3.1872209860897147e-10 -1.2288378403562081e-10 0.0000000000000000e+00  -2.1387054479834456e-10 -1.2730712254318816e-10 0.0000000000000000e+00  -1.1860233131660764e-10 -1.2172027626463240e-10 0.0000000000000000e+00  -6.3799877742947999e-11 -7.5508720191368924e-11 0.0000000000000000e+00  -6.8883127743302651e-11 2.4081521577992625e-10 0.0000000000000000e+00  -1.2598600404679220e-10 2.1454274350284982e-10 0.0000000000000000e+00  -2.1570802762280318e-10 2.1896197250494810e-10 0.0000000000000000e+00  -3.1316940065289012e-10 2.0973423178029617e-10 0.0000000000000000e+00  -4.0703581254142669e-10 1.9194977638814460e-10 0.0000000000000000e+00  -4.9222608015253808e-10 1.6784030774544133e-10 0.0000000000000000e+00  -5.6548644795904546e-10 1.3877820433662721e-10 0.0000000000000000e+00  -6.2452274714930149e-10 1.0585125956359116e-10 0.0000000000000000e+00  -6.6763858466252518e-10 7.0076722319510506e-11 0.0000000000000000e+00  -6.9365144511047752e-10 3.2472233386669663e-11 0.0000000000000000e+00  -7.0187988985907343e-10 -5.9302544996417038e-12 0.0000000000000000e+00  -6.9214224629997774e-10 -4.4092099144003158e-11 0.0000000000000000e+00  -6.6475422120102043e-10 -8.0982700343484199e-11 0.0000000000000000e+00  -6.2052256311760668e-10 -1.1559457531103246e-10 0.0000000000000000e+00  -5.6073652064150904e-10 -1.4695298033981433e-10 0.0000000000000000e+00  -4.8716721253783858e-10 -1.7410979550827738e-10 0.0000000000000000e+00  -4.0211206685625949e-10 -1.9609505441948904e-10 0.0000000000000000e+00  -3.0862209420944771e-10 -2.1175112423974018e-10 0.0000000000000000e+00  -2.1143300685591661e-10 -2.1925100136358509e-10 0.0000000000000000e+00  -1.2146482102744559e-10 -2.1505220977609655e-10 0.0000000000000000e+00  -6.7351883191520966e-11 -1.6169706003043999e-10 0.0000000000000000e+00  -7.0908006624077893e-11 3.5084907829275290e-10 0.0000000000000000e+00  -1.2593422050118264e-10 3.1746634799840502e-10 0.0000000000000000e+00  -2.1433619215840576e-10 3.1685806567355874e-10 0.0000000000000000e+00  -3.0813785079347168e-10 3.0304426328553210e-10 0.0000000000000000e+00  -3.9737471701716539e-10 2.7792594391774017e-10 0.0000000000000000e+00  -4.7811544546926512e-10 2.4369999994429631e-10 0.0000000000000000e+00  -5.4757110216443144e-10 2.0216399222759632e-10 0.0000000000000000e+00  -6.0356210274735662e-10 1.5489270223827229e-10 0.0000000000000000e+00  -6.4443555086256981e-10 1.0339047368319143e-10 0.0000000000000000e+00  -6.6903764990401424e-10 4.9157756754318290e-11 0.0000000000000000e+00  -6.7670405269102067e-10 -6.2918709799664450e-12 0.0000000000000000e+00  -6.6725639837677098e-10 -6.1439478595034215e-11 0.0000000000000000e+00  -6.4099758346740571e-10 -1.1477883272232018e-10 0.0000000000000000e+00  -5.9870288398229606e-10 -1.6483615035706733e-10 0.0000000000000000e+00  -5.4160676499414968e-10 -2.1018465847798467e-10 0.0000000000000000e+00  -4.7138953370342961e-10 -2.4944534399678175e-10 0.0000000000000000e+00  -3.9018453621950186e-10 -2.8126167680690071e-10 0.0000000000000000e+00  -3.0070690059750888e-10 -3.0424012309201580e-10 0.0000000000000000e+00  -2.0701932861081669e-10 -3.1685222971735337e-10 0.0000000000000000e+00  -1.1927807986557243e-10 -3.1697863854158015e-10 0.0000000000000000e+00  -6.7900874974140822e-11 -2.6652182697938390e-10 0.0000000000000000e+00  -7.4803296193006200e-11 4.5858001671319537e-10 0.0000000000000000e+00  -1.2632540121707809e-10 4.2095694737206143e-10 0.0000000000000000e+00  -2.1402343169547689e-10 4.1476959358854792e-10 0.0000000000000000e+00  -3.0673935375915581e-10 3.9503519883778222e-10 0.0000000000000000e+00  -3.9411252808944424e-10 3.6216138873935271e-10 0.0000000000000000e+00  -4.7264523811022515e-10 3.1787741617328234e-10 0.0000000000000000e+00  -5.3995355658707256e-10 2.6412899963773272e-10 0.0000000000000000e+00  -5.9408873082880912e-10 2.0285500179726184e-10 0.0000000000000000e+00  -6.3351099573020455e-10 1.3599609067899209e-10 0.0000000000000000e+00  -6.5712236474423213e-10 6.5514330137170864e-11 0.0000000000000000e+00  -6.6428543961391732e-10 -6.6065502429241073e-12 0.0000000000000000e+00  -6.5482904936873712e-10 -7.8377098796319315e-11 0.0000000000000000e+00  -6.2904506342740749e-10 -1.4782700771108864e-10 0.0000000000000000e+00  -5.8767729110929625e-10 -2.1303294862731225e-10 0.0000000000000000e+00  -5.3190192029024844e-10 -2.7214495706536199e-10 0.0000000000000000e+00  -4.6330098501957475e-10 -3.2340886240521029e-10 0.0000000000000000e+00  -3.8384841339530998e-10 -3.6518826017581456e-10 0.0000000000000000e+00  -2.9603122968711796e-10 -3.9600607624604011e-10 0.0000000000000000e+00  -2.0374321956587983e-10 -4.1458934090203986e-10 0.0000000000000000e+00  -1.1758561435218977e-10 -4.1927440987275630e-10 0.0000000000000000e+00  -7.0281009243394208e-11 -3.7235812742715359e-10 0.0000000000000000e+00  -8.0235899620048891e-11 5.6534876236435431e-10 0.0000000000000000e+00  -1.2797504811618214e-10 5.2449316384374083e-10 0.0000000000000000e+00  -2.1543437640176836e-10 5.1302586200529270e-10 0.0000000000000000e+00  -3.0836564591870316e-10 4.8669940696558516e-10 0.0000000000000000e+00  -3.9559731699270678e-10 4.4553873722652055e-10 0.0000000000000000e+00  -4.7358779237955305e-10 3.9098859128517758e-10 0.0000000000000000e+00  -5.4013242327350730e-10 3.2504850454781483e-10 0.0000000000000000e+00  -5.9345804255316926e-10 2.4992462676400218e-10 0.0000000000000000e+00  -6.3214380971267020e-10 1.6793361112745143e-10 0.0000000000000000e+00  -6.5516270025659729e-10 8.1463690678135675e-11 0.0000000000000000e+00  -6.6191521131690192e-10 -7.0542462348150816e-12 0.0000000000000000e+00  -6.5224432082213566e-10 -9.5178532903447499e-11 0.0000000000000000e+00  -6.2643608934236372e-10 -1.8049298673329532e-10 0.0000000000000000e+00  -5.8520872969523163e-10 -2.6064634805040783e-10 0.0000000000000000e+00  -5.2969079997781998e-10 -3.3339423814938479e-10 0.0000000000000000e+00  -4.6139207006154044e-10 -3.9664568225369919e-10 0.0000000000000000e+00  -3.8219586384277682e-10 -4.4852221221904692e-10 0.0000000000000000e+00  -2.9452877090692151e-10 -4.8744301085497356e-10 0.0000000000000000e+00  -2.0243307519159560e-10 -5.1216632509861282e-10 0.0000000000000000e+00  -1.1729959207046834e-10 -5.2100078328188522e-10 0.0000000000000000e+00  -7.4271529483165220e-11 -4.7662082700226699e-10 0.0000000000000000e+00  -8.7090559045385616e-11 6.7237573303088211e-10 0.0000000000000000e+00  -1.3092771036848460e-10 6.2870261435249633e-10 0.0000000000000000e+00  -2.1862746419859589e-10 6.1229461970787296e-10 0.0000000000000000e+00  -3.1258179130927148e-10 5.7912522493320245e-10 0.0000000000000000e+00  -4.0071596266686853e-10 5.2924796732837522e-10 0.0000000000000000e+00  -4.7925864430565169e-10 4.6409098259288285e-10 0.0000000000000000e+00  -5.4602220749257523e-10 3.8575692691810923e-10 0.0000000000000000e+00  -5.9932099164252191e-10 2.9669415940244758e-10 0.0000000000000000e+00  -6.3782151631064473e-10 1.9955887237467366e-10 0.0000000000000000e+00  -6.6056231362702051e-10 9.7134978211081974e-11 0.0000000000000000e+00  -6.6698539310815693e-10 -7.7233280720463687e-12 0.0000000000000000e+00  -6.5695372908230015e-10 -1.1214201795793128e-10 0.0000000000000000e+00  -6.3075456857612418e-10 -2.1327712780583994e-10 0.0000000000000000e+00  -5.8909084752610983e-10 -3.0836703793234914e-10 0.0000000000000000e+00  -5.3306245514254586e-10 -3.9478954393486256e-10 0.0000000000000000e+00  -4.6414421967640306e-10 -4.7012740000777137e-10 0.0000000000000000e+00  -3.8419873934351452e-10 -5.3224794574422530e-10 0.0000000000000000e+00  -2.9570404220168945e-10 -5.7939710643338852e-10 0.0000000000000000e+00  -2.0298157199871302e-10 -6.1020829653723106e-10 0.0000000000000000e+00  -1.1832917374924722e-10 -6.2280214083641089e-10 0.0000000000000000e+00  -7.9662840760023923e-11 -5.7992452943657535e-10 0.0000000000000000e+00  -9.5324780335693564e-11 7.8058257885230967e-10 0.0000000000000000e+00  -1.3497839877501817e-10 7.3430200639398211e-10 0.0000000000000000e+00  -2.2325194833960995e-10 7.1318308299917914e-10 0.0000000000000000e+00  -3.1872669591302139e-10 6.7305485832087186e-10 0.0000000000000000e+00  -4.0835638748871251e-10 6.1413222900707973e-10 0.0000000000000000e+00  -4.8808202538346807e-10 5.3799701152306918e-10 0.0000000000000000e+00  -5.5565415788476317e-10 4.4694329216879207e-10 0.0000000000000000e+00  -6.0941314886005799e-10 3.4368489904937980e-10 0.0000000000000000e+00  -6.4807945405732621e-10 2.3121072621119903e-10 0.0000000000000000e+00  -6.7074478220087418e-10 1.1268353181181649e-10 0.0000000000000000e+00  -6.7689132608690151e-10 -8.6379102253445078e-12 0.0000000000000000e+00  -6.6640536221038695e-10 -1.2946501785998102e-10 0.0000000000000000e+00  -6.3958104865537604e-10 -2.4654158120250618e-10 0.0000000000000000e+00  -5.9711536041444573e-10 -3.5670727372764170e-10 0.0000000000000000e+00  -5.4009620444912467e-10 -4.5696681653150283e-10 0.0000000000000000e+00  -4.6999268840637186e-10 -5.4456857578203482e-10 0.0000000000000000e+00  -3.8869160263283464e-10 -6.1709475404966519e-10 0.0000000000000000e+00  -2.9877741533460246e-10 -6.7255509990092205e-10 0.0000000000000000e+00  -2.0490214520933313e-10 -7.0937545767348093e-10 0.0000000000000000e+00  -1.2037328080902418e-10 -7.2544678798433474e-10 0.0000000000000000e+00  -8.6379257373473152e-11 -6.8328290766368086e-10 0.0000000000000000e+00  -1.0493686310240521e-10 8.9051125105765582e-10 0.0000000000000000e+00  -1.3981265433055220e-10 8.4180277591399351e-10 0.0000000000000000e+00  -2.2872475473742291e-10 8.1608424209528531e-10 0.0000000000000000e+00  -3.2590190538875208e-10 7.6888959942789138e-10 0.0000000000000000e+00  -4.1724064175745999e-10 7.0063469627975451e-10 0.0000000000000000e+00  -4.9837825830422297e-10 6.1315099183215828e-10 0.0000000000000000e+00  -5.6697880457371660e-10 5.0900167176186740e-10 0.0000000000000000e+00  -6.2138253764804606e-10 3.9120650297753149e-10 0.0000000000000000e+00  -6.6034687492424642e-10 2.6309888694088351e-10 0.0000000000000000e+00  -6.8301001776117466e-10 1.2821532566410956e-10 0.0000000000000000e+00  -6.8889397370164719e-10 -9.7941378907815149e-12 0.0000000000000000e+00  -6.7791022397299825e-10 -1.4724209632940079e-10 0.0000000000000000e+00  -6.5036212475222246e-10 -2.8047387332017718e-10 0.0000000000000000e+00  -6.0694397285308746e-10 -4.0593830431494121e-10 0.0000000000000000e+00  -5.4873833791638648e-10 -5.2026490365304282e-10 0.0000000000000000e+00  -4.7722104524750271e-10 -6.2035125304573714e-10 0.0000000000000000e+00  -3.9432117578117934e-10 -7.0346071085860989e-10 0.0000000000000000e+00  -3.0274951626431369e-10 -7.6731892400361500e-10 0.0000000000000000e+00  -2.0751525333067389e-10 -8.1009979067973507e-10 0.0000000000000000e+00  -1.2305545379341806e-10 -8.2945781160567101e-10 0.0000000000000000e+00  -9.4399656147378718e-11 -7.8746711370466932e-10 0.0000000000000000e+00  -1.1595136442378838e-10 1.0022717871701382e-09 0.0000000000000000e+00  -1.4504019643126608e-10 9.5138127813600721e-10 0.0000000000000000e+00  -2.3429004381820134e-10 9.2107854345085451e-10 0.0000000000000000e+00  -3.3297926247011318e-10 8.6667597280532958e-10 0.0000000000000000e+00  -4.2584851688516394e-10 7.8880848319327837e-10 0.0000000000000000e+00  -5.0822922503813620e-10 6.8961737334794768e-10 0.0000000000000000e+00  -5.7770601941859834e-10 5.7199621434537359e-10 0.0000000000000000e+00  -6.3262367503290955e-10 4.3931245111946727e-10 0.0000000000000000e+00  -6.7178167587471770e-10 2.9526256277981397e-10 0.0000000000000000e+00  -6.9437114888056377e-10 1.4375664672654372e-10 0.0000000000000000e+00  -6.9995957820433629e-10 -1.1176084255932583e-11 0.0000000000000000e+00  -6.8848591434447557e-10 -1.6546652524912349e-10 0.0000000000000000e+00  -6.6026033752260246e-10 -3.1507718723990675e-10 0.0000000000000000e+00  -6.1596821617451179e-10 -4.5607442040173272e-10 0.0000000000000000e+00  -5.5667891701718209e-10 -5.8470886179670136e-10 0.0000000000000000e+00  -4.8386793755940953e-10 -6.9750884618766947e-10 0.0000000000000000e+00  -3.9950168368319999e-10 -7.9138646203405009e-10 0.0000000000000000e+00  -3.0641600266847590e-10 -8.6374391185485626e-10 0.0000000000000000e+00  -2.0999606599555981e-10 -9.1247236804119584e-10 0.0000000000000000e+00  -1.2594040174502289e-10 -9.3499003712819400e-10 0.0000000000000000e+00  -1.0372871216001116e-10 -8.9285700266665528e-10 0.0000000000000000e+00  -1.2841172893424052e-10 1.1154794774785996e-09 0.0000000000000000e+00  -1.5019459623848547e-10 1.0627888929172208e-09 0.0000000000000000e+00  -2.3902264490962190e-10 1.0278441418139187e-09 0.0000000000000000e+00  -3.3858092312062028e-10 9.6605244960322229e-10 0.0000000000000000e+00  -4.3235148557250619e-10 8.7829048592449145e-10 0.0000000000000000e+00  -5.1536600539338026e-10 7.6705899733895059e-10 0.0000000000000000e+00  -5.8515909929656995e-10 6.3563434977034255e-10 0.0000000000000000e+00  -6.4011151986717188e-10 4.8777031392289723e-10 0.0000000000000000e+00  -6.7909378862009659e-10 3.2754411776260997e-10 0.0000000000000000e+00  -7.0137371079189331e-10 1.5923677891016360e-10 0.0000000000000000e+00  -7.0657953796630261e-10 -1.2760938629823773e-11 0.0000000000000000e+00  -6.9468181498516125e-10 -1.8402301064318335e-10 0.0000000000000000e+00  -6.6598963218761210e-10 -3.5015260132277681e-10 0.0000000000000000e+00  -6.2116096265173672e-10 -5.0684794586341010e-10 0.0000000000000000e+00  -5.6122641643077192e-10 -6.4998031867034743e-10 0.0000000000000000e+00  -4.8763295199654642e-10 -7.7569111587555459e-10 0.0000000000000000e+00  -4.0235803520359120e-10 -8.8050869544115834e-10 0.0000000000000000e+00  -3.0834504615303614e-10 -9.6147280992184042e-10 0.0000000000000000e+00  -2.1136869079899024e-10 -1.0161605505933225e-09 0.0000000000000000e+00  -1.2852493993195803e-10 -1.0417514195146104e-09 0.0000000000000000e+00  -1.1438612064772074e-10 -9.9937865177639963e-10 0.0000000000000000e+00  -1.4237656958721175e-10 1.2291712959527686e-09 0.0000000000000000e+00  -1.5471880868926639e-10 1.1752605146027724e-09 0.0000000000000000e+00  -2.4180344582101489e-10 1.1355607734539364e-09 0.0000000000000000e+00  -3.4103394236881665e-10 1.0661667466692659e-09 0.0000000000000000e+00  -4.3453412624405004e-10 9.6823574484919456e-10 0.0000000000000000e+00  -5.1705237294183073e-10 8.4468239430066319e-10 0.0000000000000000e+00  -5.8612421726181588e-10 6.9921827941439778e-10 0.0000000000000000e+00  -6.4022497099500501e-10 5.3601991991665797e-10 0.0000000000000000e+00  -6.7835159285395539e-10 3.5955763059859291e-10 0.0000000000000000e+00  -6.9989327791374108e-10 1.7447103824464677e-10 0.0000000000000000e+00  -7.0456694874020117e-10 -1.4518922879177081e-11 0.0000000000000000e+00  -6.9238185285029762e-10 -2.0267022873041784e-10 0.0000000000000000e+00  -6.6363142089417876e-10 -3.8526599151763559e-10 0.0000000000000000e+00  -6.1891258749136298e-10 -5.5766347443518028e-10 0.0000000000000000e+00  -5.5917017929454669e-10 -7.1536184233191544e-10 0.0000000000000000e+00  -4.8576996165046189e-10 -8.5409986653892734e-10 0.0000000000000000e+00  -4.0065108016298411e-10 -9.6998652424420942e-10 0.0000000000000000e+00  -3.0682982004285270e-10 -1.0596528394835084e-09 0.0000000000000000e+00  -2.1047663836097427e-10 -1.1203205962660047e-09 0.0000000000000000e+00  -1.3021967700019416e-10 -1.1489210580003783e-09 0.0000000000000000e+00  -1.2640127020270564e-10 -1.1064397721577118e-09 0.0000000000000000e+00  -1.5791837882095540e-10 1.3416971193742226e-09 0.0000000000000000e+00  -1.5794345383387366e-10 1.2874068951977039e-09 0.0000000000000000e+00  -2.4127825049612983e-10 1.2427970849439933e-09 0.0000000000000000e+00  -3.3830455204497836e-10 1.1655663328345026e-09 0.0000000000000000e+00  -4.2969665060684021e-10 1.0572167982911445e-09 0.0000000000000000e+00  -5.0995128857305424e-10 9.2114764301709517e-10 0.0000000000000000e+00  -5.7668190770981404e-10 7.6156655440824879e-10 0.0000000000000000e+00  -6.2854886476053998e-10 5.8310956545738941e-10 0.0000000000000000e+00  -6.6476257273006966e-10 3.9064395188759615e-10 0.0000000000000000e+00  -6.8490408106584017e-10 1.8913867510257042e-10 0.0000000000000000e+00  -6.8882278276588247e-10 -1.6410147863968975e-11 0.0000000000000000e+00  -6.7657764643549690e-10 -2.2101236731227916e-10 0.0000000000000000e+00  -6.4842349204175137e-10 -4.1969650823868471e-10 0.0000000000000000e+00  -6.0484332078708133e-10 -6.0752723639849871e-10 0.0000000000000000e+00  -5.4662207289441781e-10 -7.7965181868178753e-10 0.0000000000000000e+00  -4.7496121777498697e-10 -9.3139358949099471e-10 0.0000000000000000e+00  -3.9168368904579860e-10 -1.0583993980923548e-09 0.0000000000000000e+00  -2.9982259374018768e-10 -1.1568302684053232e-09 0.0000000000000000e+00  -2.0593956390673052e-10 -1.2234930420022603e-09 0.0000000000000000e+00  -1.3032528141911532e-10 -1.2550496584973568e-09 0.0000000000000000e+00  -1.3981009585501290e-10 -1.2128448449738535e-09 0.0000000000000000e+00  -1.7512464123110480e-10 1.4505817649894533e-09 0.0000000000000000e+00  -1.5906037199404634e-10 1.3970832983853787e-09 0.0000000000000000e+00  -2.3580472333373938e-10 1.3473737561302856e-09 0.0000000000000000e+00  -3.2791456924389855e-10 1.2620593225609443e-09 0.0000000000000000e+00  -4.1453556206543160e-10 1.1430877109901656e-09 0.0000000000000000e+00  -4.899