<?xml version="1.0"?>
<VTKFile type="UnstructuredGrid"  version="0.1"  >
<UnstructuredGrid>
<Piece  NumberOfPoints="651" NumberOfCells="1200">
<Points>
<DataArray  type="Float64"  NumberOfComponents="3"  format="ascii">0 0 0  50000 0 0  100000 0 0  150000 0 0  200000 0 0  250000 0 0  300000 0 0  350000 0 0  400000 0 0  450000 0 0  500000 0 0  550000 0 0  600000 0 0  650000 0 0  700000 0 0  750000 0 0  800000 0 0  850000 0 0  900000 0 0  950000 0 0  1000000 0 0  0 50000 0  50000 50000 0  100000 50000 0  150000 50000 0  200000 50000 0  250000 50000 0  300000 50000 0  350000 50000 0  400000 50000 0  450000 50000 0  500000 50000 0  550000 50000 0  600000 50000 0  650000 50000 0  700000 50000 0  750000 50000 0  800000 50000 0  850000 50000 0  900000 50000 0  950000 50000 0  1000000 50000 0  0 100000 0  50000 100000 0  100000 100000 0  150000 100000 0  200000 100000 0  250000 100000 0  300000 100000 0  350000 100000 0  400000 100000 0  450000 100000 0  500000 100000 0  550000 100000 0  600000 100000 0  650000 100000 0  700000 100000 0  750000 100000 0  800000 100000 0  850000 100000 0  900000 100000 0  950000 100000 0  1000000 100000 0  0 150000 0  50000 150000 0  100000 150000 0  150000 150000 0  200000 150000 0  250000 150000 0  300000 150000 0  350000 150000 0  400000 150000 0  450000 150000 0  500000 150000 0  550000 150000 0  600000 150000 0  650000 150000 0  700000 150000 0  750000 150000 0  800000 150000 0  850000 150000 0  900000 150000 0  950000 150000 0  1000000 150000 0  0 200000 0  50000 200000 0  100000 200000 0  150000 200000 0  200000 200000 0  250000 200000 0  300000 200000 0  350000 200000 0  400000 200000 0  450000 200000 0  500000 200000 0  550000 200000 0  600000 200000 0  650000 200000 0  700000 200000 0  750000 200000 0  800000 200000 0  850000 200000 0  900000 200000 0  950000 200000 0  1000000 200000 0  0 250000 0  50000 250000 0  100000 250000 0  150000 250000 0  200000 250000 0  250000 250000 0  300000 250000 0  350000 250000 0  400000 250000 0  450000 250000 0  500000 250000 0  550000 250000 0  600000 250000 0  650000 250000 0  700000 250000 0  750000 250000 0  800000 250000 0  850000 250000 0  900000 250000 0  950000 250000 0  1000000 250000 0  0 300000 0  50000 300000 0  100000 300000 0  150000 300000 0  200000 300000 0  250000 300000 0  300000 300000 0  350000 300000 0  400000 300000 0  450000 300000 0  500000 300000 0  550000 300000 0  600000 300000 0  650000 300000 0  700000 300000 0  750000 300000 0  800000 300000 0  850000 300000 0  900000 300000 0  950000 300000 0  1000000 300000 0  0 350000 0  50000 350000 0  100000 350000 0  150000 350000 0  200000 350000 0  250000 350000 0  300000 350000 0  350000 350000 0  400000 350000 0  450000 350000 0  500000 350000 0  550000 350000 0  600000 350000 0  650000 350000 0  700000 350000 0  750000 350000 0  800000 350000 0  850000 350000 0  900000 350000 0  950000 350000 0  1000000 350000 0  0 400000 0  50000 400000 0  100000 400000 0  150000 400000 0  200000 400000 0  250000 400000 0  300000 400000 0  350000 400000 0  400000 400000 0  450000 400000 0  500000 400000 0  550000 400000 0  600000 400000 0  650000 400000 0  700000 400000 0  750000 400000 0  800000 400000 0  850000 400000 0  900000 400000 0  950000 400000 0  1000000 400000 0  0 450000 0  50000 450000 0  100000 450000 0  150000 450000 0  200000 450000 0  250000 450000 0  300000 450000 0  350000 450000 0  400000 450000 0  450000 450000 0  500000 450000 0  550000 450000 0  600000 450000 0  650000 450000 0  700000 450000 0  750000 450000 0  800000 450000 0  850000 450000 0  900000 450000 0  950000 450000 0  1000000 450000 0  0 500000 0  50000 500000 0  100000 500000 0  150000 500000 0  200000 500000 0  250000 500000 0  300000 500000 0  350000 500000 0  400000 500000 0  450000 500000 0  500000 500000 0  550000 500000 0  600000 500000 0  650000 500000 0  700000 500000 0  750000 500000 0  800000 500000 0  850000 500000 0  900000 500000 0  950000 500000 0  1000000 500000 0  0 550000 0  50000 550000 0  100000 550000 0  150000 550000 0  200000 550000 0  250000 550000 0  300000 550000 0  350000 550000 0  400000 550000 0  450000 550000 0  500000 550000 0  550000 550000 0  600000 550000 0  650000 550000 0  700000 550000 0  750000 550000 0  800000 550000 0  850000 550000 0  900000 550000 0  950000 550000 0  1000000 550000 0  0 600000 0  50000 600000 0  100000 600000 0  150000 600000 0  200000 600000 0  250000 600000 0  300000 600000 0  350000 600000 0  400000 600000 0  450000 600000 0  500000 600000 0  550000 600000 0  600000 600000 0  650000 600000 0  700000 600000 0  750000 600000 0  800000 600000 0  850000 600000 0  900000 600000 0  950000 600000 0  1000000 600000 0  0 650000 0  50000 650000 0  100000 650000 0  150000 650000 0  200000 650000 0  250000 650000 0  300000 650000 0  350000 650000 0  400000 650000 0  450000 650000 0  500000 650000 0  550000 650000 0  600000 650000 0  650000 650000 0  700000 650000 0  750000 650000 0  800000 650000 0  850000 650000 0  900000 650000 0  950000 650000 0  1000000 650000 0  0 700000 0  50000 700000 0  100000 700000 0  150000 700000 0  200000 700000 0  250000 700000 0  300000 700000 0  350000 700000 0  400000 700000 0  450000 700000 0  500000 700000 0  550000 700000 0  600000 700000 0  650000 700000 0  700000 700000 0  750000 700000 0  800000 700000 0  850000 700000 0  900000 700000 0  950000 700000 0  1000000 700000 0  0 750000 0  50000 750000 0  100000 750000 0  150000 750000 0  200000 750000 0  250000 750000 0  300000 750000 0  350000 750000 0  400000 750000 0  450000 750000 0  500000 750000 0  550000 750000 0  600000 750000 0  650000 750000 0  700000 750000 0  750000 750000 0  800000 750000 0  850000 750000 0  900000 750000 0  950000 750000 0  1000000 750000 0  0 800000 0  50000 800000 0  100000 800000 0  150000 800000 0  200000 800000 0  250000 800000 0  300000 800000 0  350000 800000 0  400000 800000 0  450000 800000 0  500000 800000 0  550000 800000 0  600000 800000 0  650000 800000 0  700000 800000 0  750000 800000 0  800000 800000 0  850000 800000 0  900000 800000 0  950000 800000 0  1000000 800000 0  0 850000 0  50000 850000 0  100000 850000 0  150000 850000 0  200000 850000 0  250000 850000 0  300000 850000 0  350000 850000 0  400000 850000 0  450000 850000 0  500000 850000 0  550000 850000 0  600000 850000 0  650000 850000 0  700000 850000 0  750000 850000 0  800000 850000 0  850000 850000 0  900000 850000 0  950000 850000 0  1000000 850000 0  0 900000 0  50000 900000 0  100000 900000 0  150000 900000 0  200000 900000 0  250000 900000 0  300000 900000 0  350000 900000 0  400000 900000 0  450000 900000 0  500000 900000 0  550000 900000 0  600000 900000 0  650000 900000 0  700000 900000 0  750000 900000 0  800000 900000 0  850000 900000 0  900000 900000 0  950000 900000 0  1000000 900000 0  0 950000 0  50000 950000 0  100000 950000 0  150000 950000 0  200000 950000 0  250000 950000 0  300000 950000 0  350000 950000 0  400000 950000 0  450000 950000 0  500000 950000 0  550000 950000 0  600000 950000 0  650000 950000 0  700000 950000 0  750000 950000 0  800000 950000 0  850000 950000 0  900000 950000 0  950000 950000 0  1000000 950000 0  0 1000000 0  50000 1000000 0  100000 1000000 0  150000 1000000 0  200000 1000000 0  250000 1000000 0  300000 1000000 0  350000 1000000 0  400000 1000000 0  450000 1000000 0  500000 1000000 0  550000 1000000 0  600000 1000000 0  650000 1000000 0  700000 1000000 0  750000 1000000 0  800000 1000000 0  850000 1000000 0  900000 1000000 0  950000 1000000 0  1000000 1000000 0  0 1050000 0  50000 1050000 0  100000 1050000 0  150000 1050000 0  200000 1050000 0  250000 1050000 0  300000 1050000 0  350000 1050000 0  400000 1050000 0  450000 1050000 0  500000 1050000 0  550000 1050000 0  600000 1050000 0  650000 1050000 0  700000 1050000 0  750000 1050000 0  800000 1050000 0  850000 1050000 0  900000 1050000 0  950000 1050000 0  1000000 1050000 0  0 1100000 0  50000 1100000 0  100000 1100000 0  150000 1100000 0  200000 1100000 0  250000 1100000 0  300000 1100000 0  350000 1100000 0  400000 1100000 0  450000 1100000 0  500000 1100000 0  550000 1100000 0  600000 1100000 0  650000 1100000 0  700000 1100000 0  750000 1100000 0  800000 1100000 0  850000 1100000 0  900000 1100000 0  950000 1100000 0  1000000 1100000 0  0 1150000 0  50000 1150000 0  100000 1150000 0  150000 1150000 0  200000 1150000 0  250000 1150000 0  300000 1150000 0  350000 1150000 0  400000 1150000 0  450000 1150000 0  500000 1150000 0  550000 1150000 0  600000 1150000 0  650000 1150000 0  700000 1150000 0  750000 1150000 0  800000 1150000 0  850000 1150000 0  900000 1150000 0  950000 1150000 0  1000000 1150000 0  0 1200000 0  50000 1200000 0  100000 1200000 0  150000 1200000 0  200000 1200000 0  250000 1200000 0  300000 1200000 0  350000 1200000 0  400000 1200000 0  450000 1200000 0  500000 1200000 0  550000 1200000 0  600000 1200000 0  650000 1200000 0  700000 1200000 0  750000 1200000 0  800000 1200000 0  850000 1200000 0  900000 1200000 0  950000 1200000 0  1000000 1200000 0  0 1250000 0  50000 1250000 0  100000 1250000 0  150000 1250000 0  200000 1250000 0  250000 1250000 0  300000 1250000 0  350000 1250000 0  400000 1250000 0  450000 1250000 0  500000 1250000 0  550000 1250000 0  600000 1250000 0  650000 1250000 0  700000 1250000 0  750000 1250000 0  800000 1250000 0  850000 1250000 0  900000 1250000 0  950000 1250000 0  1000000 1250000 0  0 1300000 0  50000 1300000 0  100000 1300000 0  150000 1300000 0  200000 1300000 0  250000 1300000 0  300000 1300000 0  350000 1300000 0  400000 1300000 0  450000 1300000 0  500000 1300000 0  550000 1300000 0  600000 1300000 0  650000 1300000 0  700000 1300000 0  750000 1300000 0  800000 1300000 0  850000 1300000 0  900000 1300000 0  950000 1300000 0  1000000 1300000 0  0 1350000 0  50000 1350000 0  100000 1350000 0  150000 1350000 0  200000 1350000 0  250000 1350000 0  300000 1350000 0  350000 1350000 0  400000 1350000 0  450000 1350000 0  500000 1350000 0  550000 1350000 0  600000 1350000 0  650000 1350000 0  700000 135
[...]
<PointData  Vectors="f_1505"> 
<DataArray  type="Float64"  Name="f_1505"  NumberOfComponents="3" format="ascii">-8.0251775706688358e-11 7.6165518836956031e-11 0.0000000000000000e+00  -1.5019010762502260e-10 6.3218647808990733e-11 0.0000000000000000e+00  -2.7517630162097258e-10 5.8309580718117269e-11 0.0000000000000000e+00  -3.9723554415458638e-10 5.4059138667985289e-11 0.0000000000000000e+00  -5.0995184548353177e-10 4.8876007026234310e-11 0.0000000000000000e+00  -6.0958958884382949e-10 4.2622910809382210e-11 0.0000000000000000e+00  -6.9309336970965883e-10 3.5381871219845406e-11 0.0000000000000000e+00  -7.5799769907766307e-10 2.7307529006990871e-11 0.0000000000000000e+00  -8.0242829204063753e-10 1.8596339903157716e-11 0.0000000000000000e+00  -8.2513221928104293e-10 9.4709969917214628e-12 0.0000000000000000e+00  -8.2550295545694411e-10 1.6937716950072342e-13 0.0000000000000000e+00  -8.0359273112990532e-10 -9.0650168536386091e-12 0.0000000000000000e+00  -7.6011063148272093e-10 -1.7992230289060606e-11 0.0000000000000000e+00  -6.9640669888341635e-10 -2.6385264428082574e-11 0.0000000000000000e+00  -6.1444539395441707e-10 -3.4040580450094179e-11 0.0000000000000000e+00  -5.1678510809737640e-10 -4.0791808138316404e-11 0.0000000000000000e+00  -4.0664589275398756e-10 -4.6532360893878504e-11 0.0000000000000000e+00  -2.8843950727118506e-10 -5.1256158393772285e-11 0.0000000000000000e+00  -1.7031498161440683e-10 -5.4857053425146036e-11 0.0000000000000000e+00  -7.4766401781610768e-11 -5.3188394807132762e-11 0.0000000000000000e+00  -3.4643771120190812e-11 -3.2670738611970727e-11 0.0000000000000000e+00  -6.8006578174140229e-11 1.4017959759522683e-10 0.0000000000000000e+00  -1.2723704851792748e-10 1.2631237213396131e-10 0.0000000000000000e+00  -2.2801583220902257e-10 1.3042918738287571e-10 0.0000000000000000e+00  -3.3909824428768245e-10 1.2513391326894407e-10 0.0000000000000000e+00  -4.4535938133360900e-10 1.1463128685802029e-10 0.0000000000000000e+00  -5.4122888302336765e-10 1.0027041950252300e-10 0.0000000000000000e+00  -6.2337552812291007e-10 8.2838180266069137e-11 0.0000000000000000e+00  -6.8927885963674209e-10 6.2992825898778732e-11 0.0000000000000000e+00  -7.3703090344776134e-10 4.1373828030062653e-11 0.0000000000000000e+00  -7.6530500751891261e-10 1.8629981629432395e-11 0.0000000000000000e+00  -7.7335433359971361e-10 -4.5784856960193316e-12 0.0000000000000000e+00  -7.6101485066998614e-10 -2.7586943141404491e-11 0.0000000000000000e+00  -7.2870508934983863e-10 -4.9736307859907518e-11 0.0000000000000000e+00  -6.7742096936621360e-10 -7.0382679441826513e-11 0.0000000000000000e+00  -6.0872865797843237e-10 -8.8903194580556978e-11 0.0000000000000000e+00  -5.2476803961122542e-10 -1.0469107456805758e-10 0.0000000000000000e+00  -4.2831106997719122e-10 -1.1712047258533910e-10 0.0000000000000000e+00  -3.2304331604503924e-10 -1.2541021072386921e-10 0.0000000000000000e+00  -2.1479764944767111e-10 -1.2800045682078868e-10 0.0000000000000000e+00  -1.1732783353542567e-10 -1.1964634057170128e-10 0.0000000000000000e+00  -5.7824021758138640e-11 -6.8738867609164171e-11 0.0000000000000000e+00  -6.6701449116248709e-11 2.5519022295273868e-10 0.0000000000000000e+00  -1.3161010736843451e-10 2.2488975048905320e-10 0.0000000000000000e+00  -2.2939868591590544e-10 2.2814388868074870e-10 0.0000000000000000e+00  -3.3288916638934660e-10 2.1940533563663170e-10 0.0000000000000000e+00  -4.3159474469575278e-10 2.0146884858056662e-10 0.0000000000000000e+00  -5.2071394495080431e-10 1.7645646034289191e-10 0.0000000000000000e+00  -5.9700727974096640e-10 1.4588443159027275e-10 0.0000000000000000e+00  -6.5810633859578310e-10 1.1100473854761101e-10 0.0000000000000000e+00  -7.0226451138357222e-10 7.2988847677479286e-11 0.0000000000000000e+00  -7.2828993117681835e-10 3.2994467587664334e-11 0.0000000000000000e+00  -7.3552681285206261e-10 -7.8170293941889943e-12 0.0000000000000000e+00  -7.2384860464551622e-10 -4.8282911252520134e-11 0.0000000000000000e+00  -6.9365393569299055e-10 -8.7248184107153798e-11 0.0000000000000000e+00  -6.4586317636413463e-10 -1.2357413783522326e-10 0.0000000000000000e+00  -5.8191735929062275e-10 -1.5613895238520121e-10 0.0000000000000000e+00  -5.0378790663017793e-10 -1.8381774285473640e-10 0.0000000000000000e+00  -4.1402779020642323e-10 -2.0541483385806204e-10 0.0000000000000000e+00  -3.1599060870992952e-10 -2.1948358669512230e-10 0.0000000000000000e+00  -2.1474593930393053e-10 -2.2384706654415214e-10 0.0000000000000000e+00  -1.2158891830067739e-10 -2.1481606789669509e-10 0.0000000000000000e+00  -6.1930165168169254e-11 -1.5338874205843613e-10 0.0000000000000000e+00  -6.9127620656017913e-11 3.7091469987870669e-10 0.0000000000000000e+00  -1.3268532644011366e-10 3.3515959296551714e-10 0.0000000000000000e+00  -2.2979697179121101e-10 3.3269559775799503e-10 0.0000000000000000e+00  -3.3078986226615683e-10 3.1813842699585097e-10 0.0000000000000000e+00  -4.2567449009919528e-10 2.9176629249260422e-10 0.0000000000000000e+00  -5.1061842731506880e-10 2.5556166475803635e-10 0.0000000000000000e+00  -5.8298333689001325e-10 2.1143706777258099e-10 0.0000000000000000e+00  -6.4070302769216529e-10 1.6114649441497747e-10 0.0000000000000000e+00  -6.8222151451890584e-10 1.0636996446001248e-10 0.0000000000000000e+00  -7.0647954173107938e-10 4.8766136972622871e-11 0.0000000000000000e+00  -7.1290597910694112e-10 -1.0008822126875936e-11 0.0000000000000000e+00  -7.0141164938014256e-10 -6.8301286846578003e-11 0.0000000000000000e+00  -6.7238442070214994e-10 -1.2446797575995958e-10 0.0000000000000000e+00  -6.2668504970094640e-10 -1.7688364919312079e-10 0.0000000000000000e+00  -5.6564379303139138e-10 -2.2394128057233936e-10 0.0000000000000000e+00  -4.9106031026817991e-10 -2.6403534406983860e-10 0.0000000000000000e+00  -4.0522452301317934e-10 -2.9551646893986239e-10 0.0000000000000000e+00  -3.1105964952734435e-10 -3.1661162590824541e-10 0.0000000000000000e+00  -2.1289551580421168e-10 -3.2530503970987009e-10 0.0000000000000000e+00  -1.2128267927674193e-10 -3.1918728215855934e-10 0.0000000000000000e+00  -6.3385920371831241e-11 -2.5747709452444969e-10 0.0000000000000000e+00  -7.3458646713731839e-11 4.8656078721275033e-10 0.0000000000000000e+00  -1.3444113995820532e-10 4.4706288665006768e-10 0.0000000000000000e+00  -2.3123767391877271e-10 4.3853860541829599e-10 0.0000000000000000e+00  -3.3160837840110902e-10 4.1662293548587074e-10 0.0000000000000000e+00  -4.2504430382824227e-10 3.8094237745862729e-10 0.0000000000000000e+00  -5.0797204450562710e-10 3.3322802952065799e-10 0.0000000000000000e+00  -5.7814706815067871e-10 2.7557410059167575e-10 0.0000000000000000e+00  -6.3381512430780936e-10 2.1010452690455523e-10 0.0000000000000000e+00  -6.7363172185442425e-10 1.3893352637346916e-10 0.0000000000000000e+00  -6.9667685740178050e-10 6.4171497371036970e-11 0.0000000000000000e+00  -7.0246443456957293e-10 -1.2071452664443066e-11 0.0000000000000000e+00  -6.9094274029912650e-10 -8.7689902646109941e-11 0.0000000000000000e+00  -6.6249110757591861e-10 -1.6059221449350827e-10 0.0000000000000000e+00  -6.1791472283177024e-10 -2.2871003609135220e-10 0.0000000000000000e+00  -5.5843709309357644e-10 -2.9000428469048436e-10 0.0000000000000000e+00  -4.8569055166597988e-10 -3.4246520687131808e-10 0.0000000000000000e+00  -4.0172263074387615e-10 -3.8411007115181579e-10 0.0000000000000000e+00  -3.0913997122867480e-10 -4.1299918304877555e-10 0.0000000000000000e+00  -2.1201175659738480e-10 -4.2726066693156744e-10 0.0000000000000000e+00  -1.2135792501483411e-10 -4.2492198305032896e-10 0.0000000000000000e+00  -6.6517613440157285e-11 -3.6453180307222979e-10 0.0000000000000000e+00  -7.9352720209740222e-11 6.0324828495387969e-10 0.0000000000000000e+00  -1.3751164260235140e-10 5.5978805757535881e-10 0.0000000000000000e+00  -2.3447552273918668e-10 5.4525711340313187e-10 0.0000000000000000e+00  -3.3525041930870460e-10 5.1520870614013793e-10 0.0000000000000000e+00  -4.2860196287887669e-10 4.6948998929339911e-10 0.0000000000000000e+00  -5.1091898910575911e-10 4.0983862941464414e-10 0.0000000000000000e+00  -5.8014551948167106e-10 3.3851743107041433e-10 0.0000000000000000e+00  -6.3475048559659440e-10 2.5795018432851072e-10 0.0000000000000000e+00  -6.7357536286882105e-10 1.7062082654526169e-10 0.0000000000000000e+00  -6.9583483820370029e-10 7.9038321765906109e-11 0.0000000000000000e+00  -7.0112773495863516e-10 -1.4279931356667440e-11 0.0000000000000000e+00  -6.8944049569612985e-10 -1.0682101073828668e-10 0.0000000000000000e+00  -6.6114533838241487e-10 -1.9608945756241192e-10 0.0000000000000000e+00  -6.1699521557613804e-10 -2.7962080163362294e-10 0.0000000000000000e+00  -5.5811557570309284e-10 -3.5499599315336670e-10 0.0000000000000000e+00  -4.8599515464792340e-10 -4.1985946988694675e-10 0.0000000000000000e+00  -4.0250237579168623e-10 -4.7194960172341084e-10 0.0000000000000000e+00  -3.1008089410504376e-10 -5.0915882915508948e-10 0.0000000000000000e+00  -2.1283927459477364e-10 -5.2957454250071281e-10 0.0000000000000000e+00  -1.2263399502375500e-10 -5.3127290764435051e-10 0.0000000000000000e+00  -7.1273057492855680e-11 -4.7197462338796189e-10 0.0000000000000000e+00  -8.6708505096199283e-11 7.2203412582506221e-10 0.0000000000000000e+00  -1.4185453580212665e-10 6.7405488939820339e-10 0.0000000000000000e+00  -2.3945233919946594e-10 6.5328072694348728e-10 0.0000000000000000e+00  -3.4128595432831088e-10 6.1461359383084100e-10 0.0000000000000000e+00  -4.3532570808860962e-10 5.5826628913672928e-10 0.0000000000000000e+00  -5.1784094973187637e-10 4.8620839483506929e-10 0.0000000000000000e+00  -5.8686389034740659e-10 4.0094107586497397e-10 0.0000000000000000e+00  -6.4101700496559458e-10 3.0517919636475946e-10 0.0000000000000000e+00  -6.7929473303361595e-10 2.0173981796762041e-10 0.0000000000000000e+00  -7.0103486686828509e-10 9.3486906995707291e-11 0.0000000000000000e+00  -7.0591862158695669e-10 -1.6699428226334478e-11 0.0000000000000000e+00  -6.9397075616051857e-10 -1.2594322542982900e-10 0.0000000000000000e+00  -6.6555742840001386e-10 -2.3138936752619928e-10 0.0000000000000000e+00  -6.2138269006625889e-10 -3.3022072651674411e-10 0.0000000000000000e+00  -5.6248413793013845e-10 -4.1967933974473206e-10 0.0000000000000000e+00  -4.9023285577224845e-10 -4.9709657652613749e-10 0.0000000000000000e+00  -4.0637313700640058e-10 -5.5994003363147888e-10 0.0000000000000000e+00  -3.1328069563944300e-10 -6.0588536784317941e-10 0.0000000000000000e+00  -2.1522703042843770e-10 -6.3284454331911134e-10 0.0000000000000000e+00  -1.2505321642890092e-10 -6.3878296457856080e-10 0.0000000000000000e+00  -7.7482124015627780e-11 -5.8022863736178427e-10 0.0000000000000000e+00  -9.5496545950779680e-11 8.4372287119509889e-10 0.0000000000000000e+00  -1.4721882721887249e-10 7.9056879444861464e-10 0.0000000000000000e+00  -2.4569663894473479e-10 7.6311036287165140e-10 0.0000000000000000e+00  -3.4891875780600132e-10 7.1532548993110094e-10 0.0000000000000000e+00  -4.4398187286307968e-10 6.4780585139692150e-10 0.0000000000000000e+00  -5.2702665924940897e-10 5.6286043456108508e-10 0.0000000000000000e+00  -5.9614942527254058e-10 4.6329759045434850e-10 0.0000000000000000e+00  -6.5009954863750710e-10 3.5214017608712164e-10 0.0000000000000000e+00  -6.8800824003097130e-10 2.3252193091409011e-10 0.0000000000000000e+00  -7.0933059110310357e-10 1.0762837875162445e-10 0.0000000000000000e+00  -7.1382956281423420e-10 -1.9338903425948334e-11 0.0000000000000000e+00  -7.0156848855530547e-10 -1.4518498134794239e-10 0.0000000000000000e+00  -6.7290703276388558e-10 -2.6673866125286660e-10 0.0000000000000000e+00  -6.2850036119001305e-10 -3.8087006419835598e-10 0.0000000000000000e+00  -5.6930222663895041e-10 -4.8451421254008157e-10 0.0000000000000000e+00  -4.9657911150529689e-10 -5.7470619546437173e-10 0.0000000000000000e+00  -4.1197716591314897e-10 -6.4863344750864669e-10 0.0000000000000000e+00  -3.1784083937019862e-10 -7.0370781416943749e-10 0.0000000000000000e+00  -2.1864660762992293e-10 -7.3758542379890317e-10 0.0000000000000000e+00  -1.2833246008259172e-10 -7.4805009489519728e-10 0.0000000000000000e+00  -8.5070349835118326e-11 -6.9011772579219438e-10 0.0000000000000000e+00  -1.0572134130272193e-10 9.6876476622312499e-10 0.0000000000000000e+00  -1.5325170963517538e-10 9.0974788923917829e-10 0.0000000000000000e+00  -2.5250691424240797e-10 8.7499265492553362e-10 0.0000000000000000e+00  -3.5706875423920929e-10 8.1749588473899349e-10 0.0000000000000000e+00  -4.5307017308339525e-10 7.3823644771797902e-10 0.0000000000000000e+00  -5.3653788980597290e-10 6.3991328911410320e-10 0.0000000000000000e+00  -6.0565062728331655e-10 5.2568809252998261e-10 0.0000000000000000e+00  -6.5929520356062305e-10 3.9890902707213171e-10 0.0000000000000000e+00  -6.9674752947960264e-10 2.6301630431865326e-10 0.0000000000000000e+00  -7.1758754624592107e-10 1.2148723962128959e-10 0.0000000000000000e+00  -7.2166566068711831e-10 -2.2196456069411327e-11 0.0000000000000000e+00  -7.0908551498963652e-10 -1.6456721491069749e-10 0.0000000000000000e+00  -6.8019723326308158e-10 -3.0218353294145255e-10 0.0000000000000000e+00  -6.3560033139947894e-10 -4.3164273602554075e-10 0.0000000000000000e+00  -5.7615678510509097e-10 -5.4960153217991026e-10 0.0000000000000000e+00  -5.0302212225386546e-10 -6.5281026969140136e-10 0.0000000000000000e+00  -4.1774048707487709e-10 -7.3816511509822832e-10 0.0000000000000000e+00  -3.2262233209962067e-10 -8.0277905737922624e-10 0.0000000000000000e+00  -2.2235682003824270e-10 -8.4400333321301272e-10 0.0000000000000000e+00  -1.3208842893351817e-10 -8.5940277842628591e-10 0.0000000000000000e+00  -9.4013799985166522e-11 -8.0226265229135181e-10 0.0000000000000000e+00  -1.1740557384020220e-10 1.0971814733522663e-09 0.0000000000000000e+00  -1.5951837730298509e-10 1.0316123324753199e-09 0.0000000000000000e+00  -2.5900161883730993e-10 9.8878118318700516e-10 0.0000000000000000e+00  -3.6439809194435004e-10 9.2086595668987004e-10 0.0000000000000000e+00  -4.6078949421244598e-10 8.2925173905327101e-10 0.0000000000000000e+00  -5.4411673756572692e-10 7.1706039275045452e-10 0.0000000000000000e+00  -6.1268588899692168e-10 5.8783503538479172e-10 0.0000000000000000e+00  -6.6556095386700683e-10 4.4525800945030886e-10 0.0000000000000000e+00  -7.0219456836102053e-10 2.9306178093049603e-10 0.0000000000000000e+00  -7.2231553954610173e-10 1.3498147144344632e-10 0.0000000000000000e+00  -7.2587648835298182e-10 -2.5268517937451867e-11 0.0000000000000000e+00  -7.1302554079532274e-10 -1.8400173355116869e-10 0.0000000000000000e+00  -6.8409661530120610e-10 -3.3755927433098273e-10 0.0000000000000000e+00  -6.3961738945323296e-10 -4.8231101296485873e-10 0.0000000000000000e+00  -5.8033486051218511e-10 -6.1466711058830011e-10 0.0000000000000000e+00  -5.0726605140026419e-10 -7.3110666305751595e-10 0.0000000000000000e+00  -4.2182302557436959e-10 -8.2822756032930074e-10 0.0000000000000000e+00  -3.2625250869541101e-10 -9.0281877247170686e-10 0.0000000000000000e+00  -2.2544570587075117e-10 -9.5189257843887963e-10 0.0000000000000000e+00  -1.3585957868555559e-10 -9.7277012923883905e-10 0.0000000000000000e+00  -1.0431548743710262e-10 -9.1691973751505520e-10 0.0000000000000000e+00  -1.3058174015468807e-10 1.2284820168357047e-09 0.0000000000000000e+00  -1.6549443580460548e-10 1.1556925314894519e-09 0.0000000000000000e+00  -2.6411293171144507e-10 1.1038368098134613e-09 0.0000000000000000e+00  -3.6929086219121083e-10 1.0246846415082288e-09 0.0000000000000000e+00  -4.6498483636111863e-10 9.2005870566397265e-10 0.0000000000000000e+00  -5.4709299010966089e-10 7.9353372557944105e-10 0.0000000000000000e+00  -6.1411627664347273e-10 6.4905253556060219e-10 0.0000000000000000e+00  -6.6536144881766051e-10 4.9063049434287286e-10 0.0000000000000000e+00  -7.0051354223491943e-10 3.2226809701273413e-10 0.0000000000000000e+00  -7.1949217297566657e-10 1.4791289221957763e-10 0.0000000000000000e+00  -7.2237753708027055e-10 -2.8548722019568479e-11 0.0000000000000000e+00  -7.0936925971229512e-10 -2.0327941345879980e-10 0.0000000000000000e+00  -6.8077367442639259e-10 -3.7246948408731940e-10 0.0000000000000000e+00  -6.3701874313067628e-10 -5.3231827017354738e-10 0.0000000000000000e+00  -5.7869556073277785e-10 -6.7902983665119650e-10 0.0000000000000000e+00  -5.0663283941479316e-10 -8.0883175472433715e-10 0.0000000000000000e+00  -4.2205623261355143e-10 -9.1802193834510324e-10 0.0000000000000000e+00  -3.2709682227787367e-10 -1.0030459019813154e-09 0.0000000000000000e+00  -2.2682219307810045e-10 -1.0605486745200442e-09 0.0000000000000000e+00  -1.3909847843495168e-10 -1.0875885171125468e-09 0.0000000000000000e+00  -1.1599348518307046e-10 -1.0338966113948566e-09 0.0000000000000000e+00  -1.4528694147805028e-10 1.3615580052985335e-09 0.0000000000000000e+00  -1.7054728208249753e-10 1.2809285749835722e-09 0.0000000000000000e+00  -2.6655499112556702e-10 1.2189238288721914e-09 0.0000000000000000e+00  -3.6980335238298744e-10 1.1276115255460559e-09 0.0000000000000000e+00  -4.6307141271589561e-10 1.0092959433853274e-09 0.0000000000000000e+00  -5.4227690858290530e-10 8.6803767634338114e-10 0.0000000000000000e+00  -6.0620778191000496e-10 7.0819317088690695e-10 0.0000000000000000e+00  -6.5450604764980475e-10 5.3410001091148861e-10 0.0000000000000000e+00  -6.8717002139243500e-10 3.4998847484981650e-10 0.0000000000000000e+00  -7.0437183633438194e-10 1.5995509888598587e-10 0.0000000000000000e+00  -7.0635651789367601e-10 -3.2023580249430208e-11 0.0000000000000000e+00  -6.9338510050372953e-10 -2.2204985964958450e-10 0.0000000000000000e+00  -6.6571881379645691e-10 -4.0625141874262460e-10 0.0000000000000000e+00  -6.2364373362572742e-10 -5.8073246157614408e-10 0.0000000000000000e+00  -5.6753340506762954e-10 -7.4154534468732432e-10 0.0000000000000000e+00  -4.9795381283121283e-10 -8.8469485401053802e-10 0.0000000000000000e+00  -4.1586465824611181e-10 -1.0061819938438710e-09 0.0000000000000000e+00  -3.2320730179327042e-10 -1.1020911004130243e-09 0.0000000000000000e+00  -2.2518407395220486e-10 -1.1686718808606107e-09 0.0000000000000000e+00  -1.4115267241408206e-10 -1.2027033259554782e-09 0.0000000000000000e+00  -1.2907409490280079e-10 -1.1524655681960624e-09 0.0000000000000000e+00  -1.6155972202128751e-10 1.4945528405745504e-09 0.0000000000000000e+00  -1.7391164488989074e-10 1.4055500068306984e-09 0.0000000000000000e+00  -2.6477798759360450e-10 1.3320883166333919e-09 0.0000000000000000e+00  -3.6359438593543040e-10 1.2275983769345617e-09 0.0000000000000000e+00  -4.5193752848744566e-10 1.0949243447132634e-09 0.0000000000000000e+00  -5.2583188539310027e-10 9.3865310321481493e-10 0.0000000000000000e+00  -5.8447429429499867e-10 7.6356791850814111e-10 0.0000000000000000e+00  -6.2796621000535995e-10 5.7430844427664829e-10 0.0000000000000000e+00  -6.5672938780142552e-10 3.7527863825320172e-10 0.0000000000000000e+00  -6.7127306994318637e-10 1.7063542580623069e-10 0.0000000000000000e+00  -6.7205795379173619e-10 -3.5666627514215544e-11 0.0000000000000000e+00  -6.5941919923271516e-10 -2.3979228149401896e-10 0.0000000000000000e+00  -6.3354733573144983e-10 -4.3792576851675027e-10 0.0000000000000000e+00  -5.9452660135030252e-10 -6.2617801990247052e-10 0.0000000000000000e+00  -5.4242622402314270e-10 -8.0052351922204419e-10 0.0000000000000000e+00  -4.7744598060802689e-10 -9.5678425251852445e-10 0.0000000000000000e+00  -4.0017110164932361e-10 -1.0906707912991894e-09 0.0000000000000000e+00  -3.1225415436104830e-10 -1.1978860661971655e-09 0.0000000000000000e+00  -2.1897235890409530e-10 -1.2742518310553537e-09 0.0000000000000000e+00  -1.4123939145531633e-10 -1.3162522135476372e-09 0.0000000000000000e+00  -1.4358765713828242e-10 -1.2712568483513311e-09 0.0000000000000000e+00  -1.7943913699684171e-10 1.6247002568651918e-09 0.0000000000000000e+00  -1.7466104675847899e-10 1.5269295798457259e-09 0.0000000000000000e+00  -2.5691204580103173e-10 1.4405112464983927e-09 0.0000000000000000e+00  -3.4783943057429636e-10 1.3217437713959848e-09 0.0000000000000000e+00  -4.2782664571163341e-10 1.1740881075109739e-09 0.0000000000000000e+00  -4.93123