<?xml version="1.0"?>
<VTKFile type="UnstructuredGrid"  version="0.1"  >
<UnstructuredGrid>
<Piece  NumberOfPoints="651" NumberOfCells="1200">
<Points>
<DataArray  type="Float64"  NumberOfComponents="3"  format="ascii">0 0 0  50000 0 0  100000 0 0  150000 0 0  200000 0 0  250000 0 0  300000 0 0  350000 0 0  400000 0 0  450000 0 0  500000 0 0  550000 0 0  600000 0 0  650000 0 0  700000 0 0  750000 0 0  800000 0 0  850000 0 0  900000 0 0  950000 0 0  1000000 0 0  0 50000 0  50000 50000 0  100000 50000 0  150000 50000 0  200000 50000 0  250000 50000 0  300000 50000 0  350000 50000 0  400000 50000 0  450000 50000 0  500000 50000 0  550000 50000 0  600000 50000 0  650000 50000 0  700000 50000 0  750000 50000 0  800000 50000 0  850000 50000 0  900000 50000 0  950000 50000 0  1000000 50000 0  0 100000 0  50000 100000 0  100000 100000 0  150000 100000 0  200000 100000 0  250000 100000 0  300000 100000 0  350000 100000 0  400000 100000 0  450000 100000 0  500000 100000 0  550000 100000 0  600000 100000 0  650000 100000 0  700000 100000 0  750000 100000 0  800000 100000 0  850000 100000 0  900000 100000 0  950000 100000 0  1000000 100000 0  0 150000 0  50000 150000 0  100000 150000 0  150000 150000 0  200000 150000 0  250000 150000 0  300000 150000 0  350000 150000 0  400000 150000 0  450000 150000 0  500000 150000 0  550000 150000 0  600000 150000 0  650000 150000 0  700000 150000 0  750000 150000 0  800000 150000 0  850000 150000 0  900000 150000 0  950000 150000 0  1000000 150000 0  0 200000 0  50000 200000 0  100000 200000 0  150000 200000 0  200000 200000 0  250000 200000 0  300000 200000 0  350000 200000 0  400000 200000 0  450000 200000 0  500000 200000 0  550000 200000 0  600000 200000 0  650000 200000 0  700000 200000 0  750000 200000 0  800000 200000 0  850000 200000 0  900000 200000 0  950000 200000 0  1000000 200000 0  0 250000 0  50000 250000 0  100000 250000 0  150000 250000 0  200000 250000 0  250000 250000 0  300000 250000 0  350000 250000 0  400000 250000 0  450000 250000 0  500000 250000 0  550000 250000 0  600000 250000 0  650000 250000 0  700000 250000 0  750000 250000 0  800000 250000 0  850000 250000 0  900000 250000 0  950000 250000 0  1000000 250000 0  0 300000 0  50000 300000 0  100000 300000 0  150000 300000 0  200000 300000 0  250000 300000 0  300000 300000 0  350000 300000 0  400000 300000 0  450000 300000 0  500000 300000 0  550000 300000 0  600000 300000 0  650000 300000 0  700000 300000 0  750000 300000 0  800000 300000 0  850000 300000 0  900000 300000 0  950000 300000 0  1000000 300000 0  0 350000 0  50000 350000 0  100000 350000 0  150000 350000 0  200000 350000 0  250000 350000 0  300000 350000 0  350000 350000 0  400000 350000 0  450000 350000 0  500000 350000 0  550000 350000 0  600000 350000 0  650000 350000 0  700000 350000 0  750000 350000 0  800000 350000 0  850000 350000 0  900000 350000 0  950000 350000 0  1000000 350000 0  0 400000 0  50000 400000 0  100000 400000 0  150000 400000 0  200000 400000 0  250000 400000 0  300000 400000 0  350000 400000 0  400000 400000 0  450000 400000 0  500000 400000 0  550000 400000 0  600000 400000 0  650000 400000 0  700000 400000 0  750000 400000 0  800000 400000 0  850000 400000 0  900000 400000 0  950000 400000 0  1000000 400000 0  0 450000 0  50000 450000 0  100000 450000 0  150000 450000 0  200000 450000 0  250000 450000 0  300000 450000 0  350000 450000 0  400000 450000 0  450000 450000 0  500000 450000 0  550000 450000 0  600000 450000 0  650000 450000 0  700000 450000 0  750000 450000 0  800000 450000 0  850000 450000 0  900000 450000 0  950000 450000 0  1000000 450000 0  0 500000 0  50000 500000 0  100000 500000 0  150000 500000 0  200000 500000 0  250000 500000 0  300000 500000 0  350000 500000 0  400000 500000 0  450000 500000 0  500000 500000 0  550000 500000 0  600000 500000 0  650000 500000 0  700000 500000 0  750000 500000 0  800000 500000 0  850000 500000 0  900000 500000 0  950000 500000 0  1000000 500000 0  0 550000 0  50000 550000 0  100000 550000 0  150000 550000 0  200000 550000 0  250000 550000 0  300000 550000 0  350000 550000 0  400000 550000 0  450000 550000 0  500000 550000 0  550000 550000 0  600000 550000 0  650000 550000 0  700000 550000 0  750000 550000 0  800000 550000 0  850000 550000 0  900000 550000 0  950000 550000 0  1000000 550000 0  0 600000 0  50000 600000 0  100000 600000 0  150000 600000 0  200000 600000 0  250000 600000 0  300000 600000 0  350000 600000 0  400000 600000 0  450000 600000 0  500000 600000 0  550000 600000 0  600000 600000 0  650000 600000 0  700000 600000 0  750000 600000 0  800000 600000 0  850000 600000 0  900000 600000 0  950000 600000 0  1000000 600000 0  0 650000 0  50000 650000 0  100000 650000 0  150000 650000 0  200000 650000 0  250000 650000 0  300000 650000 0  350000 650000 0  400000 650000 0  450000 650000 0  500000 650000 0  550000 650000 0  600000 650000 0  650000 650000 0  700000 650000 0  750000 650000 0  800000 650000 0  850000 650000 0  900000 650000 0  950000 650000 0  1000000 650000 0  0 700000 0  50000 700000 0  100000 700000 0  150000 700000 0  200000 700000 0  250000 700000 0  300000 700000 0  350000 700000 0  400000 700000 0  450000 700000 0  500000 700000 0  550000 700000 0  600000 700000 0  650000 700000 0  700000 700000 0  750000 700000 0  800000 700000 0  850000 700000 0  900000 700000 0  950000 700000 0  1000000 700000 0  0 750000 0  50000 750000 0  100000 750000 0  150000 750000 0  200000 750000 0  250000 750000 0  300000 750000 0  350000 750000 0  400000 750000 0  450000 750000 0  500000 750000 0  550000 750000 0  600000 750000 0  650000 750000 0  700000 750000 0  750000 750000 0  800000 750000 0  850000 750000 0  900000 750000 0  950000 750000 0  1000000 750000 0  0 800000 0  50000 800000 0  100000 800000 0  150000 800000 0  200000 800000 0  250000 800000 0  300000 800000 0  350000 800000 0  400000 800000 0  450000 800000 0  500000 800000 0  550000 800000 0  600000 800000 0  650000 800000 0  700000 800000 0  750000 800000 0  800000 800000 0  850000 800000 0  900000 800000 0  950000 800000 0  1000000 800000 0  0 850000 0  50000 850000 0  100000 850000 0  150000 850000 0  200000 850000 0  250000 850000 0  300000 850000 0  350000 850000 0  400000 850000 0  450000 850000 0  500000 850000 0  550000 850000 0  600000 850000 0  650000 850000 0  700000 850000 0  750000 850000 0  800000 850000 0  850000 850000 0  900000 850000 0  950000 850000 0  1000000 850000 0  0 900000 0  50000 900000 0  100000 900000 0  150000 900000 0  200000 900000 0  250000 900000 0  300000 900000 0  350000 900000 0  400000 900000 0  450000 900000 0  500000 900000 0  550000 900000 0  600000 900000 0  650000 900000 0  700000 900000 0  750000 900000 0  800000 900000 0  850000 900000 0  900000 900000 0  950000 900000 0  1000000 900000 0  0 950000 0  50000 950000 0  100000 950000 0  150000 950000 0  200000 950000 0  250000 950000 0  300000 950000 0  350000 950000 0  400000 950000 0  450000 950000 0  500000 950000 0  550000 950000 0  600000 950000 0  650000 950000 0  700000 950000 0  750000 950000 0  800000 950000 0  850000 950000 0  900000 950000 0  950000 950000 0  1000000 950000 0  0 1000000 0  50000 1000000 0  100000 1000000 0  150000 1000000 0  200000 1000000 0  250000 1000000 0  300000 1000000 0  350000 1000000 0  400000 1000000 0  450000 1000000 0  500000 1000000 0  550000 1000000 0  600000 1000000 0  650000 1000000 0  700000 1000000 0  750000 1000000 0  800000 1000000 0  850000 1000000 0  900000 1000000 0  950000 1000000 0  1000000 1000000 0  0 1050000 0  50000 1050000 0  100000 1050000 0  150000 1050000 0  200000 1050000 0  250000 1050000 0  300000 1050000 0  350000 1050000 0  400000 1050000 0  450000 1050000 0  500000 1050000 0  550000 1050000 0  600000 1050000 0  650000 1050000 0  700000 1050000 0  750000 1050000 0  800000 1050000 0  850000 1050000 0  900000 1050000 0  950000 1050000 0  1000000 1050000 0  0 1100000 0  50000 1100000 0  100000 1100000 0  150000 1100000 0  200000 1100000 0  250000 1100000 0  300000 1100000 0  350000 1100000 0  400000 1100000 0  450000 1100000 0  500000 1100000 0  550000 1100000 0  600000 1100000 0  650000 1100000 0  700000 1100000 0  750000 1100000 0  800000 1100000 0  850000 1100000 0  900000 1100000 0  950000 1100000 0  1000000 1100000 0  0 1150000 0  50000 1150000 0  100000 1150000 0  150000 1150000 0  200000 1150000 0  250000 1150000 0  300000 1150000 0  350000 1150000 0  400000 1150000 0  450000 1150000 0  500000 1150000 0  550000 1150000 0  600000 1150000 0  650000 1150000 0  700000 1150000 0  750000 1150000 0  800000 1150000 0  850000 1150000 0  900000 1150000 0  950000 1150000 0  1000000 1150000 0  0 1200000 0  50000 1200000 0  100000 1200000 0  150000 1200000 0  200000 1200000 0  250000 1200000 0  300000 1200000 0  350000 1200000 0  400000 1200000 0  450000 1200000 0  500000 1200000 0  550000 1200000 0  600000 1200000 0  650000 1200000 0  700000 1200000 0  750000 1200000 0  800000 1200000 0  850000 1200000 0  900000 1200000 0  950000 1200000 0  1000000 1200000 0  0 1250000 0  50000 1250000 0  100000 1250000 0  150000 1250000 0  200000 1250000 0  250000 1250000 0  300000 1250000 0  350000 1250000 0  400000 1250000 0  450000 1250000 0  500000 1250000 0  550000 1250000 0  600000 1250000 0  650000 1250000 0  700000 1250000 0  750000 1250000 0  800000 1250000 0  850000 1250000 0  900000 1250000 0  950000 1250000 0  1000000 1250000 0  0 1300000 0  50000 1300000 0  100000 1300000 0  150000 1300000 0  200000 1300000 0  250000 1300000 0  300000 1300000 0  350000 1300000 0  400000 1300000 0  450000 1300000 0  500000 1300000 0  550000 1300000 0  600000 1300000 0  650000 1300000 0  700000 1300000 0  750000 1300000 0  800000 1300000 0  850000 1300000 0  900000 1300000 0  950000 1300000 0  1000000 1300000 0  0 1350000 0  50000 1350000 0  100000 1350000 0  150000 1350000 0  200000 1350000 0  250000 1350000 0  300000 1350000 0  350000 1350000 0  400000 1350000 0  450000 1350000 0  500000 1350000 0  550000 1350000 0  600000 1350000 0  650000 1350000 0  700000 135
[...]
<PointData  Vectors="f_1505"> 
<DataArray  type="Float64"  Name="f_1505"  NumberOfComponents="3" format="ascii">-8.1626405574907166e-11 7.3162161755370061e-11 0.0000000000000000e+00  -1.5007311221089075e-10 6.0131720405878942e-11 0.0000000000000000e+00  -2.7159387507966022e-10 5.4866946838017158e-11 0.0000000000000000e+00  -3.8895884098298398e-10 5.0223051023869084e-11 0.0000000000000000e+00  -4.9640478664725841e-10 4.4728320143300533e-11 0.0000000000000000e+00  -5.9080524952384174e-10 3.8248897230408562e-11 0.0000000000000000e+00  -6.6961884901586823e-10 3.0862899010531486e-11 0.0000000000000000e+00  -7.3078962986873194e-10 2.2720163853965284e-11 0.0000000000000000e+00  -7.7274542270478425e-10 1.4010824392476735e-11 0.0000000000000000e+00  -7.9442601723339504e-10 4.9486962489172165e-12 0.0000000000000000e+00  -7.9530614623514207e-10 -4.2396117644382641e-12 0.0000000000000000e+00  -7.7540656194682333e-10 -1.3323152998880886e-11 0.0000000000000000e+00  -7.3529200967247040e-10 -2.2074171273723446e-11 0.0000000000000000e+00  -6.7605613561520482e-10 -3.0275484237372700e-11 0.0000000000000000e+00  -5.9929603409475598e-10 -3.7728754244291392e-11 0.0000000000000000e+00  -5.0709298913969725e-10 -4.4267139755800414e-11 0.0000000000000000e+00  -4.0208626053122546e-10 -4.9785327069883851e-11 0.0000000000000000e+00  -2.8803780145858261e-10 -5.4323228028972248e-11 0.0000000000000000e+00  -1.7250128806686364e-10 -5.7984545997946120e-11 0.0000000000000000e+00  -7.8160260955178463e-11 -5.6275658457133216e-11 0.0000000000000000e+00  -3.8443653867077945e-11 -3.5583688135068123e-11 0.0000000000000000e+00  -6.9383980425493688e-11 1.3619824099425240e-10 0.0000000000000000e+00  -1.2433638987004261e-10 1.2227538230065255e-10 0.0000000000000000e+00  -2.2032501933577451e-10 1.2537269512537513e-10 0.0000000000000000e+00  -3.2680857547900110e-10 1.1921479037490266e-10 0.0000000000000000e+00  -4.2822397221916237e-10 1.0846718833660897e-10 0.0000000000000000e+00  -5.1943175371792371e-10 9.4376859268587707e-11 0.0000000000000000e+00  -5.9750489481541676e-10 7.7624310710599864e-11 0.0000000000000000e+00  -6.6020814016841017e-10 5.8769364900542423e-11 0.0000000000000000e+00  -7.0582620383258034e-10 3.8359829395952982e-11 0.0000000000000000e+00  -7.3314849547783372e-10 1.6957603564934933e-11 0.0000000000000000e+00  -7.4147475218819701e-10 -4.8613090867802825e-12 0.0000000000000000e+00  -7.3062174341655847e-10 -2.6515180700990086e-11 0.0000000000000000e+00  -7.0092419436107253e-10 -4.7427417969706591e-11 0.0000000000000000e+00  -6.5322820867801227e-10 -6.7037373944925079e-11 0.0000000000000000e+00  -5.8887975083583185e-10 -8.4808892207856965e-11 0.0000000000000000e+00  -5.0972001464111967e-10 -1.0023243494931532e-10 0.0000000000000000e+00  -4.1813322711748598e-10 -1.1280678101141291e-10 0.0000000000000000e+00  -3.1733686379978312e-10 -1.2192369556049880e-10 0.0000000000000000e+00  -2.1272504783579300e-10 -1.2617234781007788e-10 0.0000000000000000e+00  -1.1768769471200381e-10 -1.2017335141734737e-10 0.0000000000000000e+00  -6.1092957934006362e-11 -7.2362754324762944e-11 0.0000000000000000e+00  -6.7780259431839214e-11 2.4816471390334774e-10 0.0000000000000000e+00  -1.2691207868231273e-10 2.1724753924030251e-10 0.0000000000000000e+00  -2.1848187569229688e-10 2.1875698738248139e-10 0.0000000000000000e+00  -3.1631058759072910e-10 2.0908419266701454e-10 0.0000000000000000e+00  -4.0991980488391014e-10 1.9125060727935239e-10 0.0000000000000000e+00  -4.9463836703569047e-10 1.6717241699805356e-10 0.0000000000000000e+00  -5.6739386178234568e-10 1.3815926303223149e-10 0.0000000000000000e+00  -6.2594457685776455e-10 1.0528514180546018e-10 0.0000000000000000e+00  -6.6860987603876927e-10 6.9566219302603910e-11 0.0000000000000000e+00  -6.9421388172128514e-10 3.2021811418328114e-11 0.0000000000000000e+00  -7.0207893101740590e-10 -6.3140927791340793e-12 0.0000000000000000e+00  -6.9202633652893340e-10 -4.4400642943957951e-11 0.0000000000000000e+00  -6.6437509143278951e-10 -8.1204499082346083e-11 0.0000000000000000e+00  -6.1993636824927347e-10 -1.1571424322748208e-10 0.0000000000000000e+00  -5.6000585911290243e-10 -1.4694879839435377e-10 0.0000000000000000e+00  -4.8636398574548674e-10 -1.7394907426442490e-10 0.0000000000000000e+00  -4.0131982301446188e-10 -1.9572578742520049e-10 0.0000000000000000e+00  -3.0793215334898645e-10 -2.1108896529471492e-10 0.0000000000000000e+00  -2.1091050673243495e-10 -2.1815822166884995e-10 0.0000000000000000e+00  -1.2104979606659165e-10 -2.1350605165335662e-10 0.0000000000000000e+00  -6.4845993934179703e-11 -1.5860146020486489e-10 0.0000000000000000e+00  -6.9863781181334505e-11 3.5845767538551094e-10 0.0000000000000000e+00  -1.2652088338682310e-10 3.2148028009287710e-10 0.0000000000000000e+00  -2.1662810836438560e-10 3.1724553416720369e-10 0.0000000000000000e+00  -3.1120713299348809e-10 3.0226461490545691e-10 0.0000000000000000e+00  -4.0062986673110328e-10 2.7677079390834435e-10 0.0000000000000000e+00  -4.8118702024900383e-10 2.4244825874681644e-10 0.0000000000000000e+00  -5.5028232703336236e-10 2.0092446427087010e-10 0.0000000000000000e+00  -6.0584449240543708e-10 1.5371354656064048e-10 0.0000000000000000e+00  -6.4627595357660667e-10 1.0229696254552485e-10 0.0000000000000000e+00  -6.7045171829613264e-10 4.8166686134456819e-11 0.0000000000000000e+00  -6.7772371347679283e-10 -7.1662792651249397e-12 0.0000000000000000e+00  -6.6792384833206360e-10 -6.2182665104333201e-11 0.0000000000000000e+00  -6.4136255133728608e-10 -1.1537378653222211e-10 0.0000000000000000e+00  -5.9882175602328287e-10 -1.6526107398807815e-10 0.0000000000000000e+00  -5.4154279492977652e-10 -2.1040968997082251e-10 0.0000000000000000e+00  -4.7121324658748807e-10 -2.4942767709012180e-10 0.0000000000000000e+00  -3.8997232588474981e-10 -2.8093891313972632e-10 0.0000000000000000e+00  -3.0053157065059214e-10 -3.0352461167582870e-10 0.0000000000000000e+00  -2.0689973767482571e-10 -3.1564349390695658e-10 0.0000000000000000e+00  -1.1909842248404096e-10 -3.1545679082341806e-10 0.0000000000000000e+00  -6.5650774559359468e-11 -2.6352698946426500e-10 0.0000000000000000e+00  -7.3946567586962674e-11 4.6645414342955236e-10 0.0000000000000000e+00  -1.2673032590760667e-10 4.2609211553409231e-10 0.0000000000000000e+00  -2.1586396537673137e-10 4.1609983368154558e-10 0.0000000000000000e+00  -3.0939021895495563e-10 3.9466981419323518e-10 0.0000000000000000e+00  -3.9717995879187671e-10 3.6100455563092422e-10 0.0000000000000000e+00  -4.7577771928477855e-10 3.1637897550817477e-10 0.0000000000000000e+00  -5.4291661156521899e-10 2.6251625521439323e-10 0.0000000000000000e+00  -5.9675005961228979e-10 2.0124829649477656e-10 0.0000000000000000e+00  -6.3580776905189323e-10 1.3446385276675346e-10 0.0000000000000000e+00  -6.5903578915795598e-10 6.4099503067351702e-11 0.0000000000000000e+00  -6.6582444209127204e-10 -7.8732780151029785e-12 0.0000000000000000e+00  -6.5602049058169169e-10 -7.9470032738066911e-11 0.0000000000000000e+00  -6.2992803255985881e-10 -1.4872074257700938e-10 0.0000000000000000e+00  -5.8829980424476527e-10 -2.1369853808856242e-10 0.0000000000000000e+00  -5.3231879612462896e-10 -2.7254610355968874e-10 0.0000000000000000e+00  -4.6357161886908318e-10 -3.2349791169918404e-10 0.0000000000000000e+00  -3.8403232332014650e-10 -3.6490306978638606e-10 0.0000000000000000e+00  -2.9617553342647631e-10 -3.9527333770291924e-10 0.0000000000000000e+00  -2.0383503007339597e-10 -4.1335580252913457e-10 0.0000000000000000e+00  -1.1754176976295652e-10 -4.1783720429451227e-10 0.0000000000000000e+00  -6.8321517949158779e-11 -3.6948043652813819e-10 0.0000000000000000e+00  -7.9672716810965622e-11 5.7348281207515160e-10 0.0000000000000000e+00  -1.2829414571931361e-10 5.3045040576604412e-10 0.0000000000000000e+00  -2.1693535803479494e-10 5.1522813505997034e-10 0.0000000000000000e+00  -3.1057452598227423e-10 4.8690975786922089e-10 0.0000000000000000e+00  -3.9828159885606483e-10 4.4461557549394847e-10 0.0000000000000000e+00  -4.7647715612997549e-10 3.8945962875171800e-10 0.0000000000000000e+00  -5.4300410363166136e-10 3.2323275768989504e-10 0.0000000000000000e+00  -5.9615850191792483e-10 2.4801572810637476e-10 0.0000000000000000e+00  -6.3458072567946551e-10 1.6605181549280273e-10 0.0000000000000000e+00  -6.5728983572858265e-10 7.9687033279121627e-11 0.0000000000000000e+00  -6.6371885851168613e-10 -8.6715201231466617e-12 0.0000000000000000e+00  -6.5373319867199209e-10 -9.6594731030691189e-11 0.0000000000000000e+00  -6.2763428447430231e-10 -1.8167159560133926e-10 0.0000000000000000e+00  -5.8615073706700912e-10 -2.6155067440878656e-10 0.0000000000000000e+00  -5.3041764085832835e-10 -3.3398319880550958e-10 0.0000000000000000e+00  -4.6194736047842329e-10 -3.9687076952681150e-10 0.0000000000000000e+00  -3.8262021378231336e-10 -4.4832714937695377e-10 0.0000000000000000e+00  -2.9484847597251020e-10 -4.8677192490551784e-10 0.0000000000000000e+00  -2.0262310457711748e-10 -5.1100040904846091e-10 0.0000000000000000e+00  -1.1733709472088007e-10 -5.1970903720280885e-10 0.0000000000000000e+00  -7.2625396432610385e-11 -4.7385920574826772e-10 0.0000000000000000e+00  -8.6918213910713477e-11 6.8074991782916127e-10 0.0000000000000000e+00  -1.3121163637140843e-10 6.3527607313178104e-10 0.0000000000000000e+00  -2.1986362472586285e-10 6.1519895496564740e-10 0.0000000000000000e+00  -3.1438611660636970e-10 5.7989399517875834e-10 0.0000000000000000e+00  -4.0296314796886405e-10 5.2864843511159678e-10 0.0000000000000000e+00  -4.8176201663699248e-10 4.6266195362218051e-10 0.0000000000000000e+00  -5.4860112822681099e-10 3.8386863500005946e-10 0.0000000000000000e+00  -6.0183206208603469e-10 2.9459607417678891e-10 0.0000000000000000e+00  -6.4016513558215184e-10 1.9741847545885927e-10 0.0000000000000000e+00  -6.6267779557473091e-10 9.5066300348211383e-11 0.0000000000000000e+00  -6.6884276609988195e-10 -9.6399654082055214e-12 0.0000000000000000e+00  -6.5854576787085431e-10 -1.1384657242246098e-10 0.0000000000000000e+00  -6.3209013671677171e-10 -2.1472055706603059e-10 0.0000000000000000e+00  -5.9018951383771820e-10 -3.0950471441671921e-10 0.0000000000000000e+00  -5.3394990732389640e-10 -3.9557663774860107e-10 0.0000000000000000e+00  -4.6484782756753340e-10 -4.7051630660026498e-10 0.0000000000000000e+00  -3.8474238938636899e-10 -5.3218910895552717e-10 0.0000000000000000e+00  -2.9609984100343398e-10 -5.7884831039807761e-10 0.0000000000000000e+00  -2.0320338583059391e-10 -6.0917099929667333e-10 0.0000000000000000e+00  -1.1842021184249626e-10 -6.2168613359726350e-10 0.0000000000000000e+00  -7.8342567157480816e-11 -5.7727035180165275e-10 0.0000000000000000e+00  -9.5636280224442926e-11 7.8916145797982227e-10 0.0000000000000000e+00  -1.3525233489501458e-10 7.4133471342999225e-10 0.0000000000000000e+00  -2.2426125756887672e-10 7.1662253738448468e-10 0.0000000000000000e+00  -3.2015887808400773e-10 6.7429513819039714e-10 0.0000000000000000e+00  -4.1015754748500372e-10 6.1385778826402259e-10 0.0000000000000000e+00  -4.9013417402446354e-10 5.3672774864773596e-10 0.0000000000000000e+00  -5.5782565879675075e-10 4.4506903718300143e-10 0.0000000000000000e+00  -6.1158684464526666e-10 3.4148960010465303e-10 0.0000000000000000e+00  -6.5016450929458584e-10 2.2889744059480839e-10 0.0000000000000000e+00  -6.7267836690004064e-10 1.1039695880621112e-10 0.0000000000000000e+00  -6.7863535154948342e-10 -1.0793338279738092e-11 0.0000000000000000e+00  -6.6794148289339170e-10 -1.3141144803931437e-10 0.0000000000000000e+00  -6.4090550043210377e-10 -2.4821764422613945e-10 0.0000000000000000e+00  -5.9823419493331248e-10 -3.5806076435114753e-10 0.0000000000000000e+00  -5.4102096951963909e-10 -4.5794966857124358e-10 0.0000000000000000e+00  -4.7073641606414658e-10 -5.4513417738097358e-10 0.0000000000000000e+00  -3.8926484992538247e-10 -6.1719859477104162e-10 0.0000000000000000e+00  -2.9918304261742982e-10 -6.7216304433711804e-10 0.0000000000000000e+00  -2.0511753256461372e-10 -7.0849758767938077e-10 0.0000000000000000e+00  -1.2050417172115390e-10 -7.2451233866115927e-10 0.0000000000000000e+00  -8.5388865925075861e-11 -6.8072526071531370e-10 0.0000000000000000e+00  -1.0582090430425118e-10 8.9924190271154310e-10 0.0000000000000000e+00  -1.4008658994019840e-10 8.4915704749969014e-10 0.0000000000000000e+00  -2.2951803102043633e-10 8.1990830727397670e-10 0.0000000000000000e+00  -3.2697655123538693e-10 7.7049317071098237e-10 0.0000000000000000e+00  -4.1859454075786087e-10 7.0064090764437138e-10 0.0000000000000000e+00  -4.9994716819717404e-10 6.1205266375847899e-10 0.0000000000000000e+00  -5.6867705281056702e-10 5.0718946674184755e-10 0.0000000000000000e+00  -6.2312482170803447e-10 3.8898104915654529e-10 0.0000000000000000e+00  -6.6206016244717928e-10 2.6068579025726710e-10 0.0000000000000000e+00  -6.8463825571576849e-10 1.2578163100265393e-10 0.0000000000000000e+00  -6.9039823803350127e-10 -1.2124797102852879e-11 0.0000000000000000e+00  -6.7926644661803161e-10 -1.4937685575194802e-10 0.0000000000000000e+00  -6.5155779465463635e-10 -2.8234065862874715e-10 0.0000000000000000e+00  -6.0797457799737470e-10 -4.0747827772885146e-10 0.0000000000000000e+00  -5.4960392893320230e-10 -5.2142710099679083e-10 0.0000000000000000e+00  -4.7792314753583310e-10 -6.2108942119982845e-10 0.0000000000000000e+00  -3.9486019252063149e-10 -7.0373302147814799e-10 0.0000000000000000e+00  -3.0312198934745671e-10 -7.6709433516351568e-10 0.0000000000000000e+00  -2.0770292998963500e-10 -8.0938894824552749e-10 0.0000000000000000e+00  -1.2321941569838962e-10 -8.2869583037773428e-10 0.0000000000000000e+00  -9.3736366945876920e-11 -7.8499578009238811e-10 0.0000000000000000e+00  -1.1749044833581093e-10 1.0110817005160425e-09 0.0000000000000000e+00  -1.4531411854211055e-10 9.5892435260091431e-10 0.0000000000000000e+00  -2.3485941601960426e-10 9.2514918167358131e-10 0.0000000000000000e+00  -3.3369399305153401e-10 8.6853172869734434e-10 0.0000000000000000e+00  -4.2674939940984501e-10 7.8903052787850569e-10 0.0000000000000000e+00  -5.0929502766816821e-10 6.8867252321521156e-10 0.0000000000000000e+00  -5.7889135008015181e-10 5.7026634124989417e-10 0.0000000000000000e+00  -6.3387516083605485e-10 4.3710218073749383e-10 0.0000000000000000e+00  -6.7304788992871365e-10 2.9280857019270086e-10 0.0000000000000000e+00  -6.9560811655471907e-10 1.4123950661197234e-10 0.0000000000000000e+00  -7.0113287726426736e-10 -1.3619711273916690e-11 0.0000000000000000e+00  -6.8957046857971523e-10 -1.6773284980698227e-10 0.0000000000000000e+00  -6.6123886752588305e-10 -3.1708601016895521e-10 0.0000000000000000e+00  -6.1682905592440479e-10 -4.5776173703082343e-10 0.0000000000000000e+00  -5.5741370006593930e-10 -5.8602129275259648e-10 0.0000000000000000e+00  -4.8446956499857168e-10 -6.9839988216005341e-10 0.0000000000000000e+00  -3.9996291649519559e-10 -7.9181499438695918e-10 0.0000000000000000e+00  -3.0672851293472671e-10 -8.6367855089286032e-10 0.0000000000000000e+00  -2.1014499904089274e-10 -9.1191968820611755e-10 0.0000000000000000e+00  -1.2613404551724626e-10 -9.3438298307688944e-10 0.0000000000000000e+00  -1.0338452224856362e-10 -8.9046412835980800e-10 0.0000000000000000e+00  -1.3067888234497138e-10 1.1242746561539085e-09 0.0000000000000000e+00  -1.5046109316572661e-10 1.0703847311453444e-09 0.0000000000000000e+00  -2.3934777961697856e-10 1.0320312291955457e-09 0.0000000000000000e+00  -3.3892064542801927e-10 9.6805289795851688e-10 0.0000000000000000e+00  -4.3278710367806182e-10 8.7865724902672326e-10 0.0000000000000000e+00  -5.1591263967411473e-10 7.6623616323684427e-10 0.0000000000000000e+00  -5.8580619656942505e-10 6.3399023449010127e-10 0.0000000000000000e+00  -6.4083530278966784e-10 4.8560496490260884e-10 0.0000000000000000e+00  -6.7986498263628202e-10 3.2509614208889958e-10 0.0000000000000000e+00  -7.0216282685246463e-10 1.5669230926085315e-10 0.0000000000000000e+00  -7.0735993285210316e-10 -1.5258436048597846e-11 0.0000000000000000e+00  -6.9543089381316870e-10 -1.8636332445241829e-10 0.0000000000000000e+00  -6.6668872271428708e-10 -3.5225044745713196e-10 0.0000000000000000e+00  -6.2179439512460950e-10 -5.0863598487746923e-10 0.0000000000000000e+00  -5.6178029389061139e-10 -6.5140354135531113e-10 0.0000000000000000e+00  -4.8809406789569631e-10 -7.7670256776740364e-10 0.0000000000000000e+00  -4.0271335207575710e-10 -8.8106690522755419e-10 0.0000000000000000e+00  -3.0858194487334000e-10 -9.6154432164154880e-10 0.0000000000000000e+00  -2.1147410184399221e-10 -1.0157460191091453e-09 0.0000000000000000e+00  -1.2874649669628545e-10 -1.0412773611422287e-09 0.0000000000000000e+00  -1.1434925573188536e-10 -9.9705953855709704e-10 0.0000000000000000e+00  -1.4543076929897599e-10 1.2378349690851549e-09 0.0000000000000000e+00  -1.5496454941881634e-10 1.1827652277696428e-09 0.0000000000000000e+00  -2.4185632619762362e-10 1.1397391632684599e-09 0.0000000000000000e+00  -3.4097584553934564e-10 1.0682105694705091e-09 0.0000000000000000e+00  -4.3448797407172886e-10 9.6867757155408599e-10 0.0000000000000000e+00  -5.1706587406172601e-10 8.4394584941285220e-10 0.0000000000000000e+00  -5.8621717133248537e-10 6.9765523220298608e-10 0.0000000000000000e+00  -6.4040001374582063e-10 5.3391985318655377e-10 0.0000000000000000e+00  -6.7860031570733318e-10 3.5715406278974168e-10 0.0000000000000000e+00  -7.0020105878011569e-10 1.7194900387258925e-10 0.0000000000000000e+00  -7.0491645691952225e-10 -1.7014742566464960e-11 0.0000000000000000e+00  -6.9275516692059764e-10 -2.0502751408532289e-10 0.0000000000000000e+00  -6.6401096341728753e-10 -3.8739746071638864e-10 0.0000000000000000e+00  -6.1928122271902561e-10 -5.5950046207334161e-10 0.0000000000000000e+00  -5.5951087248921302e-10 -7.1684880556671965e-10 0.0000000000000000e+00  -4.8606541994128964e-10 -8.5518976862033794e-10 0.0000000000000000e+00  -4.0088379212090230e-10 -9.7063741408834815e-10 0.0000000000000000e+00  -3.0698304643207161e-10 -1.0598290087364460e-09 0.0000000000000000e+00  -2.1053747327543229e-10 -1.1200170314005698e-09 0.0000000000000000e+00  -1.3046801613271982e-10 -1.1485562121796287e-09 0.0000000000000000e+00  -1.2665747068343196e-10 -1.1041930352220267e-09 0.0000000000000000e+00  -1.6179878459521812e-10 1.3500894963497964e-09 0.0000000000000000e+00  -1.5815035344987475e-10 1.2946669944323887e-09 0.0000000000000000e+00  -2.4102744760588263e-10 1.2468454819929463e-09 0.0000000000000000e+00  -3.3782331901645959e-10 1.1675599415515348e-09 0.0000000000000000e+00  -4.2915206275366331e-10 1.0576700362552523e-09 0.0000000000000000e+00  -5.0942150494347841e-10 9.2046364435714133e-10 0.0000000000000000e+00  -5.7621338474496161e-10 7.6007802396585209e-10 0.0000000000000000e+00  -6.2816722781546923e-10 5.8109080941876034e-10 0.0000000000000000e+00  -6.6447800425975211e-10 3.8831798364276508e-10 0.0000000000000000e+00  -6.8471589135570651e-10 1.8668410926672391e-10 0.0000000000000000e+00  -6.8872317800177274e-10 -1.8852086088840701e-11 0.0000000000000000e+00  -6.7655444719367374e-10 -2.2333102444463084e-10 0.0000000000000000e+00  -6.4846181049864924e-10 -4.2180544879092836e-10 0.0000000000000000e+00  -6.0492639578495725e-10 -6.0935847137902564e-10 0.0000000000000000e+00  -5.4673156239924466e-10 -7.8115059182339101e-10 0.0000000000000000e+00  -4.7507729893499498e-10 -9.3251364417616629e-10 0.0000000000000000e+00  -3.9178536070354617e-10 -1.0590990269841605e-09 0.0000000000000000e+00  -2.9988906803233748e-10 -1.1570725337586424e-09 0.0000000000000000e+00  -2.0595679012643949e-10 -1.2232690145070451e-09 0.0000000000000000e+00  -1.3059931847017634e-10 -1.2547699105706210e-09 0.0000000000000000e+00  -1.4034371019489372e-10 -1.2106720952935025e-09 0.0000000000000000e+00  -1.7984384032947820e-10 1.4585413762773158e-09 0.0000000000000000e+00  -1.5920693538585063e-10 1.4039365044415688e-09 0.0000000000000000e+00  -2.3521982847512083e-10 1.3511753258653660e-09 0.0000000000000000e+00  -3.2698788556800390e-10 1.2639184132454585e-09 0.0000000000000000e+00  -4.1348076804582026e-10 1.1434976054374675e-09 0.0000000000000000e+00  -4.8889