<?xml version="1.0"?>
<VTKFile type="UnstructuredGrid"  version="0.1"  >
<UnstructuredGrid>
<Piece  NumberOfPoints="651" NumberOfCells="1200">
<Points>
<DataArray  type="Float64"  NumberOfComponents="3"  format="ascii">0 0 0  50000 0 0  100000 0 0  150000 0 0  200000 0 0  250000 0 0  300000 0 0  350000 0 0  400000 0 0  450000 0 0  500000 0 0  550000 0 0  600000 0 0  650000 0 0  700000 0 0  750000 0 0  800000 0 0  850000 0 0  900000 0 0  950000 0 0  1000000 0 0  0 50000 0  50000 50000 0  100000 50000 0  150000 50000 0  200000 50000 0  250000 50000 0  300000 50000 0  350000 50000 0  400000 50000 0  450000 50000 0  500000 50000 0  550000 50000 0  600000 50000 0  650000 50000 0  700000 50000 0  750000 50000 0  800000 50000 0  850000 50000 0  900000 50000 0  950000 50000 0  1000000 50000 0  0 100000 0  50000 100000 0  100000 100000 0  150000 100000 0  200000 100000 0  250000 100000 0  300000 100000 0  350000 100000 0  400000 100000 0  450000 100000 0  500000 100000 0  550000 100000 0  600000 100000 0  650000 100000 0  700000 100000 0  750000 100000 0  800000 100000 0  850000 100000 0  900000 100000 0  950000 100000 0  1000000 100000 0  0 150000 0  50000 150000 0  100000 150000 0  150000 150000 0  200000 150000 0  250000 150000 0  300000 150000 0  350000 150000 0  400000 150000 0  450000 150000 0  500000 150000 0  550000 150000 0  600000 150000 0  650000 150000 0  700000 150000 0  750000 150000 0  800000 150000 0  850000 150000 0  900000 150000 0  950000 150000 0  1000000 150000 0  0 200000 0  50000 200000 0  100000 200000 0  150000 200000 0  200000 200000 0  250000 200000 0  300000 200000 0  350000 200000 0  400000 200000 0  450000 200000 0  500000 200000 0  550000 200000 0  600000 200000 0  650000 200000 0  700000 200000 0  750000 200000 0  800000 200000 0  850000 200000 0  900000 200000 0  950000 200000 0  1000000 200000 0  0 250000 0  50000 250000 0  100000 250000 0  150000 250000 0  200000 250000 0  250000 250000 0  300000 250000 0  350000 250000 0  400000 250000 0  450000 250000 0  500000 250000 0  550000 250000 0  600000 250000 0  650000 250000 0  700000 250000 0  750000 250000 0  800000 250000 0  850000 250000 0  900000 250000 0  950000 250000 0  1000000 250000 0  0 300000 0  50000 300000 0  100000 300000 0  150000 300000 0  200000 300000 0  250000 300000 0  300000 300000 0  350000 300000 0  400000 300000 0  450000 300000 0  500000 300000 0  550000 300000 0  600000 300000 0  650000 300000 0  700000 300000 0  750000 300000 0  800000 300000 0  850000 300000 0  900000 300000 0  950000 300000 0  1000000 300000 0  0 350000 0  50000 350000 0  100000 350000 0  150000 350000 0  200000 350000 0  250000 350000 0  300000 350000 0  350000 350000 0  400000 350000 0  450000 350000 0  500000 350000 0  550000 350000 0  600000 350000 0  650000 350000 0  700000 350000 0  750000 350000 0  800000 350000 0  850000 350000 0  900000 350000 0  950000 350000 0  1000000 350000 0  0 400000 0  50000 400000 0  100000 400000 0  150000 400000 0  200000 400000 0  250000 400000 0  300000 400000 0  350000 400000 0  400000 400000 0  450000 400000 0  500000 400000 0  550000 400000 0  600000 400000 0  650000 400000 0  700000 400000 0  750000 400000 0  800000 400000 0  850000 400000 0  900000 400000 0  950000 400000 0  1000000 400000 0  0 450000 0  50000 450000 0  100000 450000 0  150000 450000 0  200000 450000 0  250000 450000 0  300000 450000 0  350000 450000 0  400000 450000 0  450000 450000 0  500000 450000 0  550000 450000 0  600000 450000 0  650000 450000 0  700000 450000 0  750000 450000 0  800000 450000 0  850000 450000 0  900000 450000 0  950000 450000 0  1000000 450000 0  0 500000 0  50000 500000 0  100000 500000 0  150000 500000 0  200000 500000 0  250000 500000 0  300000 500000 0  350000 500000 0  400000 500000 0  450000 500000 0  500000 500000 0  550000 500000 0  600000 500000 0  650000 500000 0  700000 500000 0  750000 500000 0  800000 500000 0  850000 500000 0  900000 500000 0  950000 500000 0  1000000 500000 0  0 550000 0  50000 550000 0  100000 550000 0  150000 550000 0  200000 550000 0  250000 550000 0  300000 550000 0  350000 550000 0  400000 550000 0  450000 550000 0  500000 550000 0  550000 550000 0  600000 550000 0  650000 550000 0  700000 550000 0  750000 550000 0  800000 550000 0  850000 550000 0  900000 550000 0  950000 550000 0  1000000 550000 0  0 600000 0  50000 600000 0  100000 600000 0  150000 600000 0  200000 600000 0  250000 600000 0  300000 600000 0  350000 600000 0  400000 600000 0  450000 600000 0  500000 600000 0  550000 600000 0  600000 600000 0  650000 600000 0  700000 600000 0  750000 600000 0  800000 600000 0  850000 600000 0  900000 600000 0  950000 600000 0  1000000 600000 0  0 650000 0  50000 650000 0  100000 650000 0  150000 650000 0  200000 650000 0  250000 650000 0  300000 650000 0  350000 650000 0  400000 650000 0  450000 650000 0  500000 650000 0  550000 650000 0  600000 650000 0  650000 650000 0  700000 650000 0  750000 650000 0  800000 650000 0  850000 650000 0  900000 650000 0  950000 650000 0  1000000 650000 0  0 700000 0  50000 700000 0  100000 700000 0  150000 700000 0  200000 700000 0  250000 700000 0  300000 700000 0  350000 700000 0  400000 700000 0  450000 700000 0  500000 700000 0  550000 700000 0  600000 700000 0  650000 700000 0  700000 700000 0  750000 700000 0  800000 700000 0  850000 700000 0  900000 700000 0  950000 700000 0  1000000 700000 0  0 750000 0  50000 750000 0  100000 750000 0  150000 750000 0  200000 750000 0  250000 750000 0  300000 750000 0  350000 750000 0  400000 750000 0  450000 750000 0  500000 750000 0  550000 750000 0  600000 750000 0  650000 750000 0  700000 750000 0  750000 750000 0  800000 750000 0  850000 750000 0  900000 750000 0  950000 750000 0  1000000 750000 0  0 800000 0  50000 800000 0  100000 800000 0  150000 800000 0  200000 800000 0  250000 800000 0  300000 800000 0  350000 800000 0  400000 800000 0  450000 800000 0  500000 800000 0  550000 800000 0  600000 800000 0  650000 800000 0  700000 800000 0  750000 800000 0  800000 800000 0  850000 800000 0  900000 800000 0  950000 800000 0  1000000 800000 0  0 850000 0  50000 850000 0  100000 850000 0  150000 850000 0  200000 850000 0  250000 850000 0  300000 850000 0  350000 850000 0  400000 850000 0  450000 850000 0  500000 850000 0  550000 850000 0  600000 850000 0  650000 850000 0  700000 850000 0  750000 850000 0  800000 850000 0  850000 850000 0  900000 850000 0  950000 850000 0  1000000 850000 0  0 900000 0  50000 900000 0  100000 900000 0  150000 900000 0  200000 900000 0  250000 900000 0  300000 900000 0  350000 900000 0  400000 900000 0  450000 900000 0  500000 900000 0  550000 900000 0  600000 900000 0  650000 900000 0  700000 900000 0  750000 900000 0  800000 900000 0  850000 900000 0  900000 900000 0  950000 900000 0  1000000 900000 0  0 950000 0  50000 950000 0  100000 950000 0  150000 950000 0  200000 950000 0  250000 950000 0  300000 950000 0  350000 950000 0  400000 950000 0  450000 950000 0  500000 950000 0  550000 950000 0  600000 950000 0  650000 950000 0  700000 950000 0  750000 950000 0  800000 950000 0  850000 950000 0  900000 950000 0  950000 950000 0  1000000 950000 0  0 1000000 0  50000 1000000 0  100000 1000000 0  150000 1000000 0  200000 1000000 0  250000 1000000 0  300000 1000000 0  350000 1000000 0  400000 1000000 0  450000 1000000 0  500000 1000000 0  550000 1000000 0  600000 1000000 0  650000 1000000 0  700000 1000000 0  750000 1000000 0  800000 1000000 0  850000 1000000 0  900000 1000000 0  950000 1000000 0  1000000 1000000 0  0 1050000 0  50000 1050000 0  100000 1050000 0  150000 1050000 0  200000 1050000 0  250000 1050000 0  300000 1050000 0  350000 1050000 0  400000 1050000 0  450000 1050000 0  500000 1050000 0  550000 1050000 0  600000 1050000 0  650000 1050000 0  700000 1050000 0  750000 1050000 0  800000 1050000 0  850000 1050000 0  900000 1050000 0  950000 1050000 0  1000000 1050000 0  0 1100000 0  50000 1100000 0  100000 1100000 0  150000 1100000 0  200000 1100000 0  250000 1100000 0  300000 1100000 0  350000 1100000 0  400000 1100000 0  450000 1100000 0  500000 1100000 0  550000 1100000 0  600000 1100000 0  650000 1100000 0  700000 1100000 0  750000 1100000 0  800000 1100000 0  850000 1100000 0  900000 1100000 0  950000 1100000 0  1000000 1100000 0  0 1150000 0  50000 1150000 0  100000 1150000 0  150000 1150000 0  200000 1150000 0  250000 1150000 0  300000 1150000 0  350000 1150000 0  400000 1150000 0  450000 1150000 0  500000 1150000 0  550000 1150000 0  600000 1150000 0  650000 1150000 0  700000 1150000 0  750000 1150000 0  800000 1150000 0  850000 1150000 0  900000 1150000 0  950000 1150000 0  1000000 1150000 0  0 1200000 0  50000 1200000 0  100000 1200000 0  150000 1200000 0  200000 1200000 0  250000 1200000 0  300000 1200000 0  350000 1200000 0  400000 1200000 0  450000 1200000 0  500000 1200000 0  550000 1200000 0  600000 1200000 0  650000 1200000 0  700000 1200000 0  750000 1200000 0  800000 1200000 0  850000 1200000 0  900000 1200000 0  950000 1200000 0  1000000 1200000 0  0 1250000 0  50000 1250000 0  100000 1250000 0  150000 1250000 0  200000 1250000 0  250000 1250000 0  300000 1250000 0  350000 1250000 0  400000 1250000 0  450000 1250000 0  500000 1250000 0  550000 1250000 0  600000 1250000 0  650000 1250000 0  700000 1250000 0  750000 1250000 0  800000 1250000 0  850000 1250000 0  900000 1250000 0  950000 1250000 0  1000000 1250000 0  0 1300000 0  50000 1300000 0  100000 1300000 0  150000 1300000 0  200000 1300000 0  250000 1300000 0  300000 1300000 0  350000 1300000 0  400000 1300000 0  450000 1300000 0  500000 1300000 0  550000 1300000 0  600000 1300000 0  650000 1300000 0  700000 1300000 0  750000 1300000 0  800000 1300000 0  850000 1300000 0  900000 1300000 0  950000 1300000 0  1000000 1300000 0  0 1350000 0  50000 1350000 0  100000 1350000 0  150000 1350000 0  200000 1350000 0  250000 1350000 0  300000 1350000 0  350000 1350000 0  400000 1350000 0  450000 1350000 0  500000 1350000 0  550000 1350000 0  600000 1350000 0  650000 1350000 0  700000 135
[...]
<PointData  Vectors="f_1505"> 
<DataArray  type="Float64"  Name="f_1505"  NumberOfComponents="3" format="ascii">-7.8044857816957929e-11 8.4625875667147982e-11 0.0000000000000000e+00  -1.4637495816110871e-10 7.1546896275519328e-11 0.0000000000000000e+00  -2.6767952545505553e-10 6.6140536288485717e-11 0.0000000000000000e+00  -3.8483259236831695e-10 6.1279188248744717e-11 0.0000000000000000e+00  -4.9207527004545196e-10 5.5519647332570746e-11 0.0000000000000000e+00  -5.8627682174085729e-10 4.8744145305521783e-11 0.0000000000000000e+00  -6.6489409462883332e-10 4.1038777184507191e-11 0.0000000000000000e+00  -7.2586995919508649e-10 3.2558469816732200e-11 0.0000000000000000e+00  -7.6763111689134720e-10 2.3497094297717514e-11 0.0000000000000000e+00  -7.8911624156732803e-10 1.4071214553227280e-11 0.0000000000000000e+00  -7.8979899352358546e-10 4.5094339830417760e-12 0.0000000000000000e+00  -7.6969915700807327e-10 -4.9557931371520268e-12 0.0000000000000000e+00  -7.2938067664928640e-10 -1.4095353908415648e-11 0.0000000000000000e+00  -6.6993655997849593e-10 -2.2690404520360846e-11 0.0000000000000000e+00  -5.9296322448818187e-10 -3.0540014455972915e-11 0.0000000000000000e+00  -5.0054061009416876e-10 -3.7472973922632012e-11 0.0000000000000000e+00  -3.9530443694538257e-10 -4.3376685822305878e-11 0.0000000000000000e+00  -2.8100796640637328e-10 -4.8279139616504994e-11 0.0000000000000000e+00  -1.6519099995932428e-10 -5.2265561017362645e-11 0.0000000000000000e+00  -7.0546318611429121e-11 -5.0822514822292714e-11 0.0000000000000000e+00  -3.0725304947582202e-11 -3.0064032584418579e-11 0.0000000000000000e+00  -6.5871169631313908e-11 1.4755720742112517e-10 0.0000000000000000e+00  -1.2470702604391272e-10 1.2604991040817763e-10 0.0000000000000000e+00  -2.2300476674223374e-10 1.2674972495201555e-10 0.0000000000000000e+00  -3.2840970571895947e-10 1.2077582520900216e-10 0.0000000000000000e+00  -4.2861265424473434e-10 1.1016002958685025e-10 0.0000000000000000e+00  -5.1893959592612105e-10 9.6125014943225444e-11 0.0000000000000000e+00  -5.9634349164805414e-10 7.9379275247699483e-11 0.0000000000000000e+00  -6.5851231717611223e-10 6.0502324133097905e-11 0.0000000000000000e+00  -7.0369350598860044e-10 4.0054915211368267e-11 0.0000000000000000e+00  -7.3065489663715571e-10 1.8606778736890943e-11 0.0000000000000000e+00  -7.3868405716358007e-10 -3.2609277286057892e-12 0.0000000000000000e+00  -7.2759260302952446e-10 -2.4962208180548685e-11 0.0000000000000000e+00  -6.9771613987353113e-10 -4.5915786961596711e-11 0.0000000000000000e+00  -6.4990801266388192e-10 -6.5554570235568021e-11 0.0000000000000000e+00  -5.8552961850645252e-10 -8.3332084716721549e-11 0.0000000000000000e+00  -5.0644982892433600e-10 -9.8720324869866146e-11 0.0000000000000000e+00  -4.1509913088914212e-10 -1.1118204155698694e-10 0.0000000000000000e+00  -3.1475276943034817e-10 -1.2003998542231586e-10 0.0000000000000000e+00  -2.1077468603043284e-10 -1.2376155568858688e-10 0.0000000000000000e+00  -1.1619153394855072e-10 -1.1638554537369220e-10 0.0000000000000000e+00  -5.3474887527605968e-11 -6.6988746815473492e-11 0.0000000000000000e+00  -6.4378789597569705e-11 2.5937149863219809e-10 0.0000000000000000e+00  -1.2767211187573580e-10 2.1997941233818186e-10 0.0000000000000000e+00  -2.2248526821838112e-10 2.1739674753500435e-10 0.0000000000000000e+00  -3.2071931051245636e-10 2.0753646286981138e-10 0.0000000000000000e+00  -4.1364575069378952e-10 1.8997653305974520e-10 0.0000000000000000e+00  -4.9742886146184734e-10 1.6617412367149893e-10 0.0000000000000000e+00  -5.6929913294074644e-10 1.3737974801578734e-10 0.0000000000000000e+00  -6.2706919088584633e-10 1.0467250838716552e-10 0.0000000000000000e+00  -6.6905643415031791e-10 6.9085126587592654e-11 0.0000000000000000e+00  -6.9407620804433308e-10 3.1651898988026211e-11 0.0000000000000000e+00  -7.0144403240424106e-10 -6.5812016690943873e-12 0.0000000000000000e+00  -6.9097845069765235e-10 -4.4562714779345231e-11 0.0000000000000000e+00  -6.6300071703501120e-10 -8.1247980657814633e-11 0.0000000000000000e+00  -6.1833026411094940e-10 -1.1561110755563082e-10 0.0000000000000000e+00  -5.5827833651450637e-10 -1.4664990288714011e-10 0.0000000000000000e+00  -4.8464920886887401e-10 -1.7337192896985652e-10 0.0000000000000000e+00  -3.9978088802833309e-10 -1.9473425991134918e-10 0.0000000000000000e+00  -3.0674471621494673e-10 -2.0946662584318786e-10 0.0000000000000000e+00  -2.1015396548697335e-10 -2.1558214800610270e-10 0.0000000000000000e+00  -1.2018364022255328e-10 -2.0980179153449619e-10 0.0000000000000000e+00  -5.7527676236792939e-11 -1.5346017846863358e-10 0.0000000000000000e+00  -6.6632973966756934e-11 3.6955245176246307e-10 0.0000000000000000e+00  -1.2662461574165997e-10 3.2619409857668671e-10 0.0000000000000000e+00  -2.1975706294803232e-10 3.1652948944993802e-10 0.0000000000000000e+00  -3.1557430572610201e-10 3.0020476653695585e-10 0.0000000000000000e+00  -4.0518435693175397e-10 2.7455232367172874e-10 0.0000000000000000e+00  -4.8534961763775399e-10 2.4039656294423611e-10 0.0000000000000000e+00  -5.5382086088779037e-10 1.9910896418479225e-10 0.0000000000000000e+00  -6.0870185703231242e-10 1.5213047301595846e-10 0.0000000000000000e+00  -6.4847221832891142e-10 1.0092743281979272e-10 0.0000000000000000e+00  -6.7204029483921300e-10 4.6995500911044719e-11 0.0000000000000000e+00  -6.7877394339188171e-10 -8.1448062796806485e-12 0.0000000000000000e+00  -6.6851484136305236e-10 -6.2962239242588501e-11 0.0000000000000000e+00  -6.4158201938362469e-10 -1.1593346690279223e-10 0.0000000000000000e+00  -5.9876717400647969e-10 -1.6556093240576431e-10 0.0000000000000000e+00  -5.4132310736567061e-10 -2.1038394651554892e-10 0.0000000000000000e+00  -4.7094843336258478e-10 -2.4897518093368972e-10 0.0000000000000000e+00  -3.8978460113497099e-10 -2.7991368246483292e-10 0.0000000000000000e+00  -3.0051141587330258e-10 -3.0173831842954513e-10 0.0000000000000000e+00  -2.0697514411570518e-10 -3.1291677073572920e-10 0.0000000000000000e+00  -1.1859785483263962e-10 -3.1203010367578047e-10 0.0000000000000000e+00  -5.8694936323438346e-11 -2.5871453035002711e-10 0.0000000000000000e+00  -7.0939529116927468e-11 4.7746638122100348e-10 0.0000000000000000e+00  -1.2650457243800755e-10 4.3246314525753718e-10 0.0000000000000000e+00  -2.1821884443873608e-10 4.1682309078360709e-10 0.0000000000000000e+00  -3.1311408004987961e-10 3.9316711902660988e-10 0.0000000000000000e+00  -4.0157993335234736e-10 3.5869096781097214e-10 0.0000000000000000e+00  -4.8028128805902108e-10 3.1388322875882932e-10 0.0000000000000000e+00  -5.4716525065279328e-10 2.6010147631099056e-10 0.0000000000000000e+00  -6.0055794760320810e-10 1.9901900904117045e-10 0.0000000000000000e+00  -6.3909933948306925e-10 1.3245996382374020e-10 0.0000000000000000e+00  -6.6180083885812012e-10 6.2338168254735857e-11 0.0000000000000000e+00  -6.6809131857733434e-10 -9.3786560706407094e-12 0.0000000000000000e+00  -6.5784126555479782e-10 -8.0700192008525386e-11 0.0000000000000000e+00  -6.3137044730468088e-10 -1.4964427703277170e-10 0.0000000000000000e+00  -5.8944241614927615e-10 -2.1426634311348263e-10 0.0000000000000000e+00  -5.3324650935358912e-10 -2.7268587846187085e-10 0.0000000000000000e+00  -4.6436842347670336e-10 -3.2311005811410900e-10 0.0000000000000000e+00  -3.8476638747020784e-10 -3.6386306620032983e-10 0.0000000000000000e+00  -2.9686545808195280e-10 -3.9345358983310953e-10 0.0000000000000000e+00  -2.0434293496106725e-10 -4.1069411913056877e-10 0.0000000000000000e+00  -1.1726968545130051e-10 -4.1473732945571237e-10 0.0000000000000000e+00  -6.1755030927604348e-11 -3.6502480173875213e-10 0.0000000000000000e+00  -7.6940250405247437e-11 5.8444553266341076e-10 0.0000000000000000e+00  -1.2792330555828834e-10 5.3796313789825287e-10 0.0000000000000000e+00  -2.1876689330148639e-10 5.1734136958873572e-10 0.0000000000000000e+00  -3.1365640688790656e-10 4.8634236968825435e-10 0.0000000000000000e+00  -4.0220756713601506e-10 4.4269298438095448e-10 0.0000000000000000e+00  -4.8080736950320792e-10 3.8694439123025210e-10 0.0000000000000000e+00  -5.4738281345544168e-10 3.2054198453793765e-10 0.0000000000000000e+00  -6.0034641921637931e-10 2.4537214016639650e-10 0.0000000000000000e+00  -6.3843881022571949e-10 1.6357516728854960e-10 0.0000000000000000e+00  -6.6075209780347510e-10 7.7446036721367346e-11 0.0000000000000000e+00  -6.6676891587193345e-10 -1.0630445357497426e-11 0.0000000000000000e+00  -6.5638722768744642e-10 -9.8231058753582964e-11 0.0000000000000000e+00  -6.2992903269053237e-10 -1.8294051853878315e-10 0.0000000000000000e+00  -5.8813440582677363e-10 -2.6239622083068177e-10 0.0000000000000000e+00  -5.3214138593021511e-10 -3.3433397176082276e-10 0.0000000000000000e+00  -4.6345517560926472e-10 -3.9663981701951084e-10 0.0000000000000000e+00  -3.8393470648885950e-10 -4.4742030345071000e-10 0.0000000000000000e+00  -2.9594615840935392e-10 -4.8511345225566958e-10 0.0000000000000000e+00  -2.0335347193470876e-10 -5.0859274170695771e-10 0.0000000000000000e+00  -1.1721172570926982e-10 -5.1703841895491830e-10 0.0000000000000000e+00  -6.6462539788078487e-11 -4.6976762213911106e-10 0.0000000000000000e+00  -8.4517749328769134e-11 6.9169618920607669e-10 0.0000000000000000e+00  -1.3079797894926302e-10 6.4362639467949362e-10 0.0000000000000000e+00  -2.2135638354932807e-10 6.1845588489757914e-10 0.0000000000000000e+00  -3.1694543742312206e-10 5.8030010857133545e-10 0.0000000000000000e+00  -4.0636220435728581e-10 5.2733599321035019e-10 0.0000000000000000e+00  -4.8569871342736934e-10 4.6040025705652360e-10 0.0000000000000000e+00  -5.5278019453311441e-10 3.8115715406664972e-10 0.0000000000000000e+00  -6.0601809830980630e-10 2.9174864477614136e-10 0.0000000000000000e+00  -6.4419457239745129e-10 1.9463072749802951e-10 0.0000000000000000e+00  -6.6645028293389860e-10 9.2463208175370071e-11 0.0000000000000000e+00  -6.7230653294735617e-10 -1.1972836529920930e-11 0.0000000000000000e+00  -6.6168328384733187e-10 -1.1584298620743122e-10 0.0000000000000000e+00  -6.3490580194076583e-10 -2.1632065431040235e-10 0.0000000000000000e+00  -5.9269908463456948e-10 -3.1064686768939940e-10 0.0000000000000000e+00  -5.3617071307419418e-10 -3.9619346354331559e-10 0.0000000000000000e+00  -4.6678888579700299e-10 -4.7053578113444691e-10 0.0000000000000000e+00  -3.8639367814892633e-10 -5.3154335949838990e-10 0.0000000000000000e+00  -2.9741640974666537e-10 -5.7749533111170996e-10 0.0000000000000000e+00  -2.0404156239455847e-10 -6.0714289602104818e-10 0.0000000000000000e+00  -1.1839853322059932e-10 -6.1951257221181586e-10 0.0000000000000000e+00  -7.2588890027237672e-11 -5.7354602061595684e-10 0.0000000000000000e+00  -9.3636156043953305e-11 8.0012155965169145e-10 0.0000000000000000e+00  -1.3485540368993682e-10 7.5033419098554143e-10 0.0000000000000000e+00  -2.2553320365492210e-10 7.2079005711880131e-10 0.0000000000000000e+00  -3.2230814650107200e-10 6.7557790755551436e-10 0.0000000000000000e+00  -4.1306195534639366e-10 6.1320569278699299e-10 0.0000000000000000e+00  -4.9359941373809411e-10 5.3485884184659661e-10 0.0000000000000000e+00  -5.6162992876899834e-10 4.4250839711617579e-10 0.0000000000000000e+00  -6.1552868784790404e-10 3.3860632412821776e-10 0.0000000000000000e+00  -6.5408520118193354e-10 2.2594523304837630e-10 0.0000000000000000e+00  -6.7646525474826702e-10 1.0755014534584836e-10 0.0000000000000000e+00  -6.8221562800177744e-10 -1.3411837544371540e-11 0.0000000000000000e+00  -6.7127249079038475e-10 -1.3370984804878299e-10 0.0000000000000000e+00  -6.4396450253866373e-10 -2.5012124007514238e-10 0.0000000000000000e+00  -6.0100865196259339e-10 -3.5950285840254701e-10 0.0000000000000000e+00  -5.4349956071176280e-10 -4.5886699742290868e-10 0.0000000000000000e+00  -4.7290096919816065e-10 -5.4546717756701804e-10 0.0000000000000000e+00  -3.9108331323912970e-10 -6.1689763735563525e-10 0.0000000000000000e+00  -3.0059970153506165e-10 -6.7120402415753460e-10 0.0000000000000000e+00  -2.0599984019801959e-10 -7.0692079605002359e-10 0.0000000000000000e+00  -1.2056544642568412e-10 -7.2286814675757032e-10 0.0000000000000000e+00  -8.0044379034742649e-11 -6.7737318542486243e-10 0.0000000000000000e+00  -1.0430275501793334e-10 9.1024009629875934e-10 0.0000000000000000e+00  -1.3974208000020244e-10 8.5867376660749691e-10 0.0000000000000000e+00  -2.3063685300953153e-10 8.2479221473121991e-10 0.0000000000000000e+00  -3.2879395759541896e-10 7.7251330327029978e-10 0.0000000000000000e+00  -4.2104841329524577e-10 7.0060744437572743e-10 0.0000000000000000e+00  -5.0292032333933437e-10 6.1061862754744981e-10 0.0000000000000000e+00  -5.7201521439562880e-10 5.0487342163040222e-10 0.0000000000000000e+00  -6.2667154186025310e-10 3.8617779820373948e-10 0.0000000000000000e+00  -6.6567903842194814e-10 2.5768636474799209e-10 0.0000000000000000e+00  -6.8822142921992845e-10 1.2279708411303147e-10 0.0000000000000000e+00  -6.9386586317576358e-10 -1.4941278595346563e-11 0.0000000000000000e+00  -6.8256141344708365e-10 -1.5191180977954687e-10 0.0000000000000000e+00  -6.5463850571357344e-10 -2.8450661121621935e-10 0.0000000000000000e+00  -6.1080734598881020e-10 -4.0920420526932511e-10 0.0000000000000000e+00  -5.5215590890553362e-10 -5.2265287218587452e-10 0.0000000000000000e+00  -4.8015655352145724e-10 -6.2176418993225048e-10 0.0000000000000000e+00  -3.9672821703537131e-10 -7.0381788412845081e-10 0.0000000000000000e+00  -3.0456269559655045e-10 -7.6657198824034018e-10 0.0000000000000000e+00  -2.0859305816280959e-10 -8.0829581376659477e-10 0.0000000000000000e+00  -1.2335326123947172e-10 -8.2759145000090202e-10 0.0000000000000000e+00  -8.8798304395659702e-11 -7.8202503925718919e-10 0.0000000000000000e+00  -1.1655081083394035e-10 1.0221321107111333e-09 0.0000000000000000e+00  -1.4504345983089066e-10 9.6885398746700464e-10 0.0000000000000000e+00  -2.3585646684972140e-10 9.3058408062169952e-10 0.0000000000000000e+00  -3.3522142067170072e-10 8.7114122862417898e-10 0.0000000000000000e+00  -4.2878175544361495e-10 7.8952823226231254e-10 0.0000000000000000e+00  -5.1176979811952132e-10 6.8765345261198353e-10 0.0000000000000000e+00  -5.8171118049365253e-10 5.6822901073531481e-10 0.0000000000000000e+00  -6.3692988042131553e-10 4.3444747448679947e-10 0.0000000000000000e+00  -6.7623193319278540e-10 2.8984690035091548e-10 0.0000000000000000e+00  -6.9882965526525063e-10 1.3820496908985448e-10 0.0000000000000000e+00  -7.0431619327108841e-10 -1.6553117778837845e-11 0.0000000000000000e+00  -6.9265396001434646e-10 -1.7043608420290329e-10 0.0000000000000000e+00  -6.6417074030879653e-10 -3.1946238259306730e-10 0.0000000000000000e+00  -6.1956219305164145e-10 -4.5973731893304812e-10 0.0000000000000000e+00  -5.5990081405867106e-10 -5.8753837110820250e-10 0.0000000000000000e+00  -4.8665955990084995e-10 -6.9941328969506456e-10 0.0000000000000000e+00  -4.0179886360860896e-10 -7.9229129912353117e-10 0.0000000000000000e+00  -3.0814357276648184e-10 -8.6360084094776050e-10 0.0000000000000000e+00  -2.1102138522646355e-10 -9.1131525859218791e-10 0.0000000000000000e+00  -1.2633470198735389e-10 -9.3381617169351260e-10 0.0000000000000000e+00  -9.8849533602929953e-11 -8.8788842707319041e-10 0.0000000000000000e+00  -1.3042996352973310e-10 1.1353760895274398e-09 0.0000000000000000e+00  -1.5027554645349285e-10 1.0806317274397506e-09 0.0000000000000000e+00  -2.4022669203717017e-10 1.0378682634881242e-09 0.0000000000000000e+00  -3.4016742376099039e-10 9.7110470300053184e-10 0.0000000000000000e+00  -4.3440346949092231e-10 8.7957753950688463e-10 0.0000000000000000e+00  -5.1787706113575776e-10 7.6557615077051013e-10 0.0000000000000000e+00  -5.8806892443239537e-10 6.3222557180549158e-10 0.0000000000000000e+00  -6.4332990712082634e-10 4.8313124254480317e-10 0.0000000000000000e+00  -6.8251981122447176e-10 3.2222958355737933e-10 0.0000000000000000e+00  -7.0490847394087270e-10 1.5367773997520055e-10 0.0000000000000000e+00  -7.1013254385332374e-10 -1.8235948752861663e-11 0.0000000000000000e+00  -6.9817224612180462e-10 -1.8916615353591876e-10 0.0000000000000000e+00  -6.6934427774347396e-10 -3.5477716322973823e-10 0.0000000000000000e+00  -6.2431043400649752e-10 -5.1081198542660245e-10 0.0000000000000000e+00  -5.6410111303610888e-10 -6.5317373715480231e-10 0.0000000000000000e+00  -4.9016007811464346e-10 -7.7802593611991635e-10 0.0000000000000000e+00  -4.0446034801023143e-10 -8.8191284460575596e-10 0.0000000000000000e+00  -3.0993805947423672e-10 -9.6189382435894625e-10 0.0000000000000000e+00  -2.1232315037175062e-10 -1.0156167198237891e-09 0.0000000000000000e+00  -1.2901018327997777e-10 -1.0412383541954736e-09 0.0000000000000000e+00  -1.1021503869522989e-10 -9.9489680091912108e-10 0.0000000000000000e+00  -1.4599999797890529e-10 1.2489645066779538e-09 0.0000000000000000e+00  -1.5486630411154041e-10 1.1932287094360192e-09 0.0000000000000000e+00  -2.4259744558493515e-10 1.1458356716933442e-09 0.0000000000000000e+00  -3.4192269669975938e-10 1.0715599770365647e-09 0.0000000000000000e+00  -4.3566909220200647e-10 9.6990345410580712e-10 0.0000000000000000e+00  -5.1849417525596031e-10 8.4357052704820319e-10 0.0000000000000000e+00  -5.8788419789959800e-10 6.9613352698020126e-10 0.0000000000000000e+00  -6.4227976384994719e-10 5.3163592917686999e-10 0.0000000000000000e+00  -6.8065521714404531e-10 3.5442020529006782e-10 0.0000000000000000e+00  -7.0238703360883360e-10 1.6901055373749869e-10 0.0000000000000000e+00  -7.0718610063555524e-10 -1.9970604687460194e-11 0.0000000000000000e+00  -6.9505900531410880e-10 -2.0786155968809014e-10 0.0000000000000000e+00  -6.6629724095996923e-10 -3.9000839334979377e-10 0.0000000000000000e+00  -6.2149487126411186e-10 -5.6181590621746561e-10 0.0000000000000000e+00  -5.6159235758484973e-10 -7.1881752241375131e-10 0.0000000000000000e+00  -4.8795010119857249e-10 -8.5677493013523490e-10 0.0000000000000000e+00  -4.0250189890126131e-10 -9.7181092760205840e-10 0.0000000000000000e+00  -3.0825709326907071e-10 -1.0605702645587105e-09 0.0000000000000000e+00  -2.1134975168516103e-10 -1.1203366281628368e-09 0.0000000000000000e+00  -1.3079163131765655e-10 -1.1490305195892767e-09 0.0000000000000000e+00  -1.2292389721346517e-10 -1.1024644422563819e-09 0.0000000000000000e+00  -1.6332658348079371e-10 1.3611947772905508e-09 0.0000000000000000e+00  -1.5813199588560668e-10 1.3052293485606229e-09 0.0000000000000000e+00  -2.4158986803262250e-10 1.2530569271490246e-09 0.0000000000000000e+00  -3.3842559356681763e-10 1.1710638986964319e-09 0.0000000000000000e+00  -4.2985548372775806e-10 1.0590831665402243e-09 0.0000000000000000e+00  -5.1027218808274886e-10 9.2029206335387535e-10 0.0000000000000000e+00  -5.7724075436677816e-10 7.5875884053466192e-10 0.0000000000000000e+00  -6.2938274076247964e-10 5.7899316238256730e-10 0.0000000000000000e+00  -6.6587682667195691e-10 3.8574302540049385e-10 0.0000000000000000e+00  -6.8627975557136040e-10 1.8386939220907871e-10 0.0000000000000000e+00  -6.9042310578691156e-10 -2.1725076448862922e-11 0.0000000000000000e+00  -6.7835267991240032e-10 -2.2612793475899995e-10 0.0000000000000000e+00  -6.5031283721104490e-10 -4.2442996804648738e-10 0.0000000000000000e+00  -6.0677730517303144e-10 -6.1174373977022206e-10 0.0000000000000000e+00  -5.4852210948215958e-10 -7.8325126228946170e-10 0.0000000000000000e+00  -4.7674008541487690e-10 -9.3429842599777574e-10 0.0000000000000000e+00  -3.9324608378403229e-10 -1.0605437858893395e-09 0.0000000000000000e+00  -3.0106407713939967e-10 -1.1581576379736241e-09 0.0000000000000000e+00  -2.0672476006230156e-10 -1.2240026645358176e-09 0.0000000000000000e+00  -1.3097972870835270e-10 -1.2557396949530207e-09 0.0000000000000000e+00  -1.3701352102084331e-10 -1.2094007936083088e-09 0.0000000000000000e+00  -1.8247886866612115e-10 1.4695316691553204e-09 0.0000000000000000e+00  -1.5925003555031589e-10 1.4144536974979988e-09 0.0000000000000000e+00  -2.3554249475004230e-10 1.3573495676089255e-09 0.0000000000000000e+00  -3.2717866298131576e-10 1.2674351080190570e-09 0.0000000000000000e+00  -4.1364416458675000e-10 1.1449832178440524e-09 0.0000000000000000e+00  -4.89108