<?xml version="1.0"?>
<VTKFile type="UnstructuredGrid"  version="0.1"  >
<UnstructuredGrid>
<Piece  NumberOfPoints="651" NumberOfCells="1200">
<Points>
<DataArray  type="Float64"  NumberOfComponents="3"  format="ascii">0 0 0  50000 0 0  100000 0 0  150000 0 0  200000 0 0  250000 0 0  300000 0 0  350000 0 0  400000 0 0  450000 0 0  500000 0 0  550000 0 0  600000 0 0  650000 0 0  700000 0 0  750000 0 0  800000 0 0  850000 0 0  900000 0 0  950000 0 0  1000000 0 0  0 50000 0  50000 50000 0  100000 50000 0  150000 50000 0  200000 50000 0  250000 50000 0  300000 50000 0  350000 50000 0  400000 50000 0  450000 50000 0  500000 50000 0  550000 50000 0  600000 50000 0  650000 50000 0  700000 50000 0  750000 50000 0  800000 50000 0  850000 50000 0  900000 50000 0  950000 50000 0  1000000 50000 0  0 100000 0  50000 100000 0  100000 100000 0  150000 100000 0  200000 100000 0  250000 100000 0  300000 100000 0  350000 100000 0  400000 100000 0  450000 100000 0  500000 100000 0  550000 100000 0  600000 100000 0  650000 100000 0  700000 100000 0  750000 100000 0  800000 100000 0  850000 100000 0  900000 100000 0  950000 100000 0  1000000 100000 0  0 150000 0  50000 150000 0  100000 150000 0  150000 150000 0  200000 150000 0  250000 150000 0  300000 150000 0  350000 150000 0  400000 150000 0  450000 150000 0  500000 150000 0  550000 150000 0  600000 150000 0  650000 150000 0  700000 150000 0  750000 150000 0  800000 150000 0  850000 150000 0  900000 150000 0  950000 150000 0  1000000 150000 0  0 200000 0  50000 200000 0  100000 200000 0  150000 200000 0  200000 200000 0  250000 200000 0  300000 200000 0  350000 200000 0  400000 200000 0  450000 200000 0  500000 200000 0  550000 200000 0  600000 200000 0  650000 200000 0  700000 200000 0  750000 200000 0  800000 200000 0  850000 200000 0  900000 200000 0  950000 200000 0  1000000 200000 0  0 250000 0  50000 250000 0  100000 250000 0  150000 250000 0  200000 250000 0  250000 250000 0  300000 250000 0  350000 250000 0  400000 250000 0  450000 250000 0  500000 250000 0  550000 250000 0  600000 250000 0  650000 250000 0  700000 250000 0  750000 250000 0  800000 250000 0  850000 250000 0  900000 250000 0  950000 250000 0  1000000 250000 0  0 300000 0  50000 300000 0  100000 300000 0  150000 300000 0  200000 300000 0  250000 300000 0  300000 300000 0  350000 300000 0  400000 300000 0  450000 300000 0  500000 300000 0  550000 300000 0  600000 300000 0  650000 300000 0  700000 300000 0  750000 300000 0  800000 300000 0  850000 300000 0  900000 300000 0  950000 300000 0  1000000 300000 0  0 350000 0  50000 350000 0  100000 350000 0  150000 350000 0  200000 350000 0  250000 350000 0  300000 350000 0  350000 350000 0  400000 350000 0  450000 350000 0  500000 350000 0  550000 350000 0  600000 350000 0  650000 350000 0  700000 350000 0  750000 350000 0  800000 350000 0  850000 350000 0  900000 350000 0  950000 350000 0  1000000 350000 0  0 400000 0  50000 400000 0  100000 400000 0  150000 400000 0  200000 400000 0  250000 400000 0  300000 400000 0  350000 400000 0  400000 400000 0  450000 400000 0  500000 400000 0  550000 400000 0  600000 400000 0  650000 400000 0  700000 400000 0  750000 400000 0  800000 400000 0  850000 400000 0  900000 400000 0  950000 400000 0  1000000 400000 0  0 450000 0  50000 450000 0  100000 450000 0  150000 450000 0  200000 450000 0  250000 450000 0  300000 450000 0  350000 450000 0  400000 450000 0  450000 450000 0  500000 450000 0  550000 450000 0  600000 450000 0  650000 450000 0  700000 450000 0  750000 450000 0  800000 450000 0  850000 450000 0  900000 450000 0  950000 450000 0  1000000 450000 0  0 500000 0  50000 500000 0  100000 500000 0  150000 500000 0  200000 500000 0  250000 500000 0  300000 500000 0  350000 500000 0  400000 500000 0  450000 500000 0  500000 500000 0  550000 500000 0  600000 500000 0  650000 500000 0  700000 500000 0  750000 500000 0  800000 500000 0  850000 500000 0  900000 500000 0  950000 500000 0  1000000 500000 0  0 550000 0  50000 550000 0  100000 550000 0  150000 550000 0  200000 550000 0  250000 550000 0  300000 550000 0  350000 550000 0  400000 550000 0  450000 550000 0  500000 550000 0  550000 550000 0  600000 550000 0  650000 550000 0  700000 550000 0  750000 550000 0  800000 550000 0  850000 550000 0  900000 550000 0  950000 550000 0  1000000 550000 0  0 600000 0  50000 600000 0  100000 600000 0  150000 600000 0  200000 600000 0  250000 600000 0  300000 600000 0  350000 600000 0  400000 600000 0  450000 600000 0  500000 600000 0  550000 600000 0  600000 600000 0  650000 600000 0  700000 600000 0  750000 600000 0  800000 600000 0  850000 600000 0  900000 600000 0  950000 600000 0  1000000 600000 0  0 650000 0  50000 650000 0  100000 650000 0  150000 650000 0  200000 650000 0  250000 650000 0  300000 650000 0  350000 650000 0  400000 650000 0  450000 650000 0  500000 650000 0  550000 650000 0  600000 650000 0  650000 650000 0  700000 650000 0  750000 650000 0  800000 650000 0  850000 650000 0  900000 650000 0  950000 650000 0  1000000 650000 0  0 700000 0  50000 700000 0  100000 700000 0  150000 700000 0  200000 700000 0  250000 700000 0  300000 700000 0  350000 700000 0  400000 700000 0  450000 700000 0  500000 700000 0  550000 700000 0  600000 700000 0  650000 700000 0  700000 700000 0  750000 700000 0  800000 700000 0  850000 700000 0  900000 700000 0  950000 700000 0  1000000 700000 0  0 750000 0  50000 750000 0  100000 750000 0  150000 750000 0  200000 750000 0  250000 750000 0  300000 750000 0  350000 750000 0  400000 750000 0  450000 750000 0  500000 750000 0  550000 750000 0  600000 750000 0  650000 750000 0  700000 750000 0  750000 750000 0  800000 750000 0  850000 750000 0  900000 750000 0  950000 750000 0  1000000 750000 0  0 800000 0  50000 800000 0  100000 800000 0  150000 800000 0  200000 800000 0  250000 800000 0  300000 800000 0  350000 800000 0  400000 800000 0  450000 800000 0  500000 800000 0  550000 800000 0  600000 800000 0  650000 800000 0  700000 800000 0  750000 800000 0  800000 800000 0  850000 800000 0  900000 800000 0  950000 800000 0  1000000 800000 0  0 850000 0  50000 850000 0  100000 850000 0  150000 850000 0  200000 850000 0  250000 850000 0  300000 850000 0  350000 850000 0  400000 850000 0  450000 850000 0  500000 850000 0  550000 850000 0  600000 850000 0  650000 850000 0  700000 850000 0  750000 850000 0  800000 850000 0  850000 850000 0  900000 850000 0  950000 850000 0  1000000 850000 0  0 900000 0  50000 900000 0  100000 900000 0  150000 900000 0  200000 900000 0  250000 900000 0  300000 900000 0  350000 900000 0  400000 900000 0  450000 900000 0  500000 900000 0  550000 900000 0  600000 900000 0  650000 900000 0  700000 900000 0  750000 900000 0  800000 900000 0  850000 900000 0  900000 900000 0  950000 900000 0  1000000 900000 0  0 950000 0  50000 950000 0  100000 950000 0  150000 950000 0  200000 950000 0  250000 950000 0  300000 950000 0  350000 950000 0  400000 950000 0  450000 950000 0  500000 950000 0  550000 950000 0  600000 950000 0  650000 950000 0  700000 950000 0  750000 950000 0  800000 950000 0  850000 950000 0  900000 950000 0  950000 950000 0  1000000 950000 0  0 1000000 0  50000 1000000 0  100000 1000000 0  150000 1000000 0  200000 1000000 0  250000 1000000 0  300000 1000000 0  350000 1000000 0  400000 1000000 0  450000 1000000 0  500000 1000000 0  550000 1000000 0  600000 1000000 0  650000 1000000 0  700000 1000000 0  750000 1000000 0  800000 1000000 0  850000 1000000 0  900000 1000000 0  950000 1000000 0  1000000 1000000 0  0 1050000 0  50000 1050000 0  100000 1050000 0  150000 1050000 0  200000 1050000 0  250000 1050000 0  300000 1050000 0  350000 1050000 0  400000 1050000 0  450000 1050000 0  500000 1050000 0  550000 1050000 0  600000 1050000 0  650000 1050000 0  700000 1050000 0  750000 1050000 0  800000 1050000 0  850000 1050000 0  900000 1050000 0  950000 1050000 0  1000000 1050000 0  0 1100000 0  50000 1100000 0  100000 1100000 0  150000 1100000 0  200000 1100000 0  250000 1100000 0  300000 1100000 0  350000 1100000 0  400000 1100000 0  450000 1100000 0  500000 1100000 0  550000 1100000 0  600000 1100000 0  650000 1100000 0  700000 1100000 0  750000 1100000 0  800000 1100000 0  850000 1100000 0  900000 1100000 0  950000 1100000 0  1000000 1100000 0  0 1150000 0  50000 1150000 0  100000 1150000 0  150000 1150000 0  200000 1150000 0  250000 1150000 0  300000 1150000 0  350000 1150000 0  400000 1150000 0  450000 1150000 0  500000 1150000 0  550000 1150000 0  600000 1150000 0  650000 1150000 0  700000 1150000 0  750000 1150000 0  800000 1150000 0  850000 1150000 0  900000 1150000 0  950000 1150000 0  1000000 1150000 0  0 1200000 0  50000 1200000 0  100000 1200000 0  150000 1200000 0  200000 1200000 0  250000 1200000 0  300000 1200000 0  350000 1200000 0  400000 1200000 0  450000 1200000 0  500000 1200000 0  550000 1200000 0  600000 1200000 0  650000 1200000 0  700000 1200000 0  750000 1200000 0  800000 1200000 0  850000 1200000 0  900000 1200000 0  950000 1200000 0  1000000 1200000 0  0 1250000 0  50000 1250000 0  100000 1250000 0  150000 1250000 0  200000 1250000 0  250000 1250000 0  300000 1250000 0  350000 1250000 0  400000 1250000 0  450000 1250000 0  500000 1250000 0  550000 1250000 0  600000 1250000 0  650000 1250000 0  700000 1250000 0  750000 1250000 0  800000 1250000 0  850000 1250000 0  900000 1250000 0  950000 1250000 0  1000000 1250000 0  0 1300000 0  50000 1300000 0  100000 1300000 0  150000 1300000 0  200000 1300000 0  250000 1300000 0  300000 1300000 0  350000 1300000 0  400000 1300000 0  450000 1300000 0  500000 1300000 0  550000 1300000 0  600000 1300000 0  650000 1300000 0  700000 1300000 0  750000 1300000 0  800000 1300000 0  850000 1300000 0  900000 1300000 0  950000 1300000 0  1000000 1300000 0  0 1350000 0  50000 1350000 0  100000 1350000 0  150000 1350000 0  200000 1350000 0  250000 1350000 0  300000 1350000 0  350000 1350000 0  400000 1350000 0  450000 1350000 0  500000 1350000 0  550000 1350000 0  600000 1350000 0  650000 1350000 0  700000 135
[...]
<PointData  Vectors="f_1505"> 
<DataArray  type="Float64"  Name="f_1505"  NumberOfComponents="3" format="ascii">-8.2061320180289183e-11 6.8145274536758822e-11 0.0000000000000000e+00  -1.5057093487739659e-10 5.5213996792933489e-11 0.0000000000000000e+00  -2.7219289297976370e-10 5.0127212114012403e-11 0.0000000000000000e+00  -3.8967171013349069e-10 4.5688031683630707e-11 0.0000000000000000e+00  -4.9723168224035519e-10 4.0408149335164728e-11 0.0000000000000000e+00  -5.9174399244416564e-10 3.4147956902093645e-11 0.0000000000000000e+00  -6.7066457734087724e-10 2.6983339376847798e-11 0.0000000000000000e+00  -7.3193520262372051e-10 1.9062604466800406e-11 0.0000000000000000e+00  -7.7398202607758997e-10 1.0574332748690062e-11 0.0000000000000000e+00  -7.9574369726705174e-10 1.7306276407964910e-12 0.0000000000000000e+00  -7.9669433950435127e-10 -7.2438498222911458e-12 0.0000000000000000e+00  -7.7685468160172444e-10 -1.6120385818542780e-11 0.0000000000000000e+00  -7.3679011939215761e-10 -2.4673757313542425e-11 0.0000000000000000e+00  -6.7759573583972899e-10 -3.2689603121361163e-11 0.0000000000000000e+00  -6.0087098456312927e-10 -3.9972667892147346e-11 0.0000000000000000e+00  -5.0870060596059680e-10 -4.6359433324726259e-11 0.0000000000000000e+00  -4.0372868327489684e-10 -5.1748187376175734e-11 0.0000000000000000e+00  -2.8972372836024537e-10 -5.6182963246753836e-11 0.0000000000000000e+00  -1.7424624793914931e-10 -5.9772350197413468e-11 0.0000000000000000e+00  -7.9974557859973887e-11 -5.8023762736710290e-11 0.0000000000000000e+00  -4.0290330293595306e-11 -3.7364978127828187e-11 0.0000000000000000e+00  -6.9696321937515085e-11 1.3116859676539334e-10 0.0000000000000000e+00  -1.2374675011902326e-10 1.2048812159861379e-10 0.0000000000000000e+00  -2.1886586232763773e-10 1.2483966532313587e-10 0.0000000000000000e+00  -3.2574186717174630e-10 1.1869761324384232e-10 0.0000000000000000e+00  -4.2765608333359454e-10 1.0793942107212079e-10 0.0000000000000000e+00  -5.1924714903545701e-10 9.3847106739446878e-11 0.0000000000000000e+00  -5.9762135092208218e-10 7.7100032782667687e-11 0.0000000000000000e+00  -6.6056668486561763e-10 5.8255103070489771e-11 0.0000000000000000e+00  -7.0637852785948701e-10 3.7857557398924980e-11 0.0000000000000000e+00  -7.3385311603638454e-10 1.6467711845642663e-11 0.0000000000000000e+00  -7.4229503957135433e-10 -5.3393712511173643e-12 0.0000000000000000e+00  -7.3152454997494871e-10 -2.6982629215996603e-11 0.0000000000000000e+00  -7.0187882764037158e-10 -4.7886123694785283e-11 0.0000000000000000e+00  -6.5420545880527853e-10 -6.7490134510350137e-11 0.0000000000000000e+00  -5.8985059933371002e-10 -8.5260177727348149e-11 0.0000000000000000e+00  -5.1065347633371641e-10 -1.0069013246009740e-10 0.0000000000000000e+00  -4.1899298584757959e-10 -1.1328602346301074e-10 0.0000000000000000e+00  -3.1808149847626715e-10 -1.2245310660920999e-10 0.0000000000000000e+00  -2.1333755873704756e-10 -1.2680152304287866e-10 0.0000000000000000e+00  -1.1821814891623051e-10 -1.2104445748583764e-10 0.0000000000000000e+00  -6.2912756556163525e-11 -7.4087888681466151e-11 0.0000000000000000e+00  -6.7872345910564370e-11 2.4314469143274853e-10 0.0000000000000000e+00  -1.2624597431274046e-10 2.1568440031528923e-10 0.0000000000000000e+00  -2.1664761700791533e-10 2.1922570226932017e-10 0.0000000000000000e+00  -3.1431659287949007e-10 2.0976565111759370e-10 0.0000000000000000e+00  -4.0819307654070476e-10 1.9188320541383494e-10 0.0000000000000000e+00  -4.9329563466240188e-10 1.6771437599016658e-10 0.0000000000000000e+00  -5.6642026684336903e-10 1.3861025205335849e-10 0.0000000000000000e+00  -6.2529460556833652e-10 1.0565337367617698e-10 0.0000000000000000e+00  -6.6823443971341780e-10 6.9859520613183417e-11 0.0000000000000000e+00  -6.9406612912835707e-10 3.2245974994527206e-11 0.0000000000000000e+00  -7.0211560729703281e-10 -6.1551298496894043e-12 0.0000000000000000e+00  -6.9220777196535169e-10 -4.4304513734214623e-11 0.0000000000000000e+00  -6.6466454636769831e-10 -8.1170425094678610e-11 0.0000000000000000e+00  -6.2029895364497374e-10 -1.1574356285905080e-10 0.0000000000000000e+00  -5.6040703239675080e-10 -1.4704634499707114e-10 0.0000000000000000e+00  -4.8676767981273900e-10 -1.7412601522958931e-10 0.0000000000000000e+00  -4.0168714943794996e-10 -1.9600468880550684e-10 0.0000000000000000e+00  -3.0822468182936442e-10 -2.1151117530399005e-10 0.0000000000000000e+00  -2.1111508577702497e-10 -2.1879406882971002e-10 0.0000000000000000e+00  -1.2127619914734344e-10 -2.1436107877925370e-10 0.0000000000000000e+00  -6.6613219779459368e-11 -1.6020794755835352e-10 0.0000000000000000e+00  -6.9680224775720206e-11 3.5347277746309031e-10 0.0000000000000000e+00  -1.2615110057631634e-10 3.1910618167027984e-10 0.0000000000000000e+00  -2.1529782167698940e-10 3.1739457632152565e-10 0.0000000000000000e+00  -3.0942515066885167e-10 3.0312745168389062e-10 0.0000000000000000e+00  -3.9878420645255279e-10 2.7777559595544269e-10 0.0000000000000000e+00  -4.7950946373929457e-10 2.4341004080672667e-10 0.0000000000000000e+00  -5.4886398747656384e-10 2.0178376456869125e-10 0.0000000000000000e+00  -6.0470225847313360e-10 1.5445449371972757e-10 0.0000000000000000e+00  -6.4539338542928096e-10 1.0291908930330442e-10 0.0000000000000000e+00  -6.6979881087661001e-10 4.8674363851419534e-11 0.0000000000000000e+00  -6.7726567406419025e-10 -6.7678251195019222e-12 0.0000000000000000e+00  -6.6762491433832075e-10 -6.1888996607060660e-11 0.0000000000000000e+00  -6.4118747507187988e-10 -1.1518225579616420e-10 0.0000000000000000e+00  -5.9873609682780489e-10 -1.6517195072683069e-10 0.0000000000000000e+00  -5.4151265335353500e-10 -2.1042789040312981e-10 0.0000000000000000e+00  -4.7120511399046455e-10 -2.4956543332392294e-10 0.0000000000000000e+00  -3.8995445049716311e-10 -2.8121925925851835e-10 0.0000000000000000e+00  -3.0048112750175346e-10 -3.0398361685420118e-10 0.0000000000000000e+00  -2.0683806259217137e-10 -3.1632110698905738e-10 0.0000000000000000e+00  -1.1918385062293853e-10 -3.1624153891213240e-10 0.0000000000000000e+00  -6.7330494425302760e-11 -2.6498162248609022e-10 0.0000000000000000e+00  -7.3449937680218482e-11 4.6153879307149525e-10 0.0000000000000000e+00  -1.2651775220180013e-10 4.2310906472829384e-10 0.0000000000000000e+00  -2.1496937283484670e-10 4.1569296153510560e-10 0.0000000000000000e+00  -3.0804216421597028e-10 3.9532372113198071e-10 0.0000000000000000e+00  -3.9559850784180140e-10 3.6206189772877243e-10 0.0000000000000000e+00  -4.7417503412898607e-10 3.1752953390647967e-10 0.0000000000000000e+00  -5.4142517779732463e-10 2.6361902706006748e-10 0.0000000000000000e+00  -5.9543344523429066e-10 2.0224196563525644e-10 0.0000000000000000e+00  -6.3468577810603725e-10 1.3532424917847538e-10 0.0000000000000000e+00  -6.5810345201949808e-10 6.4819492405025775e-11 0.0000000000000000e+00  -6.6506372761938490e-10 -7.2934400500989952e-12 0.0000000000000000e+00  -6.5540698292547230e-10 -7.9027561807282180e-11 0.0000000000000000e+00  -6.2943460126323051e-10 -1.4841310445428453e-10 0.0000000000000000e+00  -5.8789863609550087e-10 -2.1352546071786513e-10 0.0000000000000000e+00  -5.3198275101541032e-10 -2.7251144889606189e-10 0.0000000000000000e+00  -4.6327583284466706e-10 -3.2361151427243159e-10 0.0000000000000000e+00  -3.8375746922131789e-10 -3.6518177737651019e-10 0.0000000000000000e+00  -2.9591661814036066e-10 -3.9573796100107345e-10 0.0000000000000000e+00  -2.0363483265025029e-10 -4.1401278197713297e-10 0.0000000000000000e+00  -1.1754752640582202e-10 -4.1850945329721892e-10 0.0000000000000000e+00  -6.9887390694172965e-11 -3.7077142691341206e-10 0.0000000000000000e+00  -7.8835591458427674e-11 5.6867682749859785e-10 0.0000000000000000e+00  -1.2816832620341975e-10 5.2712853006098749e-10 0.0000000000000000e+00  -2.1637190452089911e-10 5.1434109791104309e-10 0.0000000000000000e+00  -3.0964903730332841e-10 4.8723990702932267e-10 0.0000000000000000e+00  -3.9708008285397534e-10 4.4554936521918543e-10 0.0000000000000000e+00  -4.7514487263406480e-10 3.9063560777664041e-10 0.0000000000000000e+00  -5.4166286536928260e-10 3.2444948582061971e-10 0.0000000000000000e+00  -5.9488767791382320e-10 2.4916586873619555e-10 0.0000000000000000e+00  -6.3342268634988156e-10 1.6708113332797989e-10 0.0000000000000000e+00  -6.5626076839520549e-10 8.0570303815691617e-11 0.0000000000000000e+00  -6.6281825190894917e-10 -7.9442203927944964e-12 0.0000000000000000e+00  -6.5295069498189653e-10 -9.6025846527063715e-11 0.0000000000000000e+00  -6.2695431874239410e-10 -1.8126073885247412e-10 0.0000000000000000e+00  -5.8555574059982489e-10 -2.6129760036557214e-10 0.0000000000000000e+00  -5.2989058865014542e-10 -3.3388981555757880e-10 0.0000000000000000e+00  -4.6147444681635877e-10 -3.9694223406265563e-10 0.0000000000000000e+00  -3.8219470239006336e-10 -4.4857119097936190e-10 0.0000000000000000e+00  -2.9447856139704937e-10 -4.8719331958457785e-10 0.0000000000000000e+00  -2.0235955486665013e-10 -5.1158081239853136e-10 0.0000000000000000e+00  -1.1729748334458075e-10 -5.2022795297420155e-10 0.0000000000000000e+00  -7.4054695115200974e-11 -4.7498364636922985e-10 0.0000000000000000e+00  -8.5721641458224261e-11 6.7609989198307039e-10 0.0000000000000000e+00  -1.3113883041790393e-10 6.3179690904268487e-10 0.0000000000000000e+00  -2.1956198358231468e-10 6.1397387380289408e-10 0.0000000000000000e+00  -3.1383200402329820e-10 5.7991552063889342e-10 0.0000000000000000e+00  -4.0215397905654044e-10 5.2938685700507300e-10 0.0000000000000000e+00  -4.8077659534898791e-10 4.6375913683077624e-10 0.0000000000000000e+00  -5.4752900321371482e-10 3.8509517102939260e-10 0.0000000000000000e+00  -6.0074597600151459e-10 2.9581250921639707e-10 0.0000000000000000e+00  -6.3911451801495715e-10 1.9854415180742898e-10 0.0000000000000000e+00  -6.6169130682364884e-10 9.6057139115247648e-11 0.0000000000000000e+00  -6.6793347140741104e-10 -8.8061659856759362e-12 0.0000000000000000e+00  -6.5771625236741234e-10 -1.1317952650444811e-10 0.0000000000000000e+00  -6.3133677166458259e-10 -2.1422343264372136e-10 0.0000000000000000e+00  -5.8950591396440261e-10 -3.0917787868456463e-10 0.0000000000000000e+00  -5.3332992175281383e-10 -3.9541986698741204e-10 0.0000000000000000e+00  -4.6428849726520689e-10 -4.7052955301465384e-10 0.0000000000000000e+00  -3.8424746212334564e-10 -5.3237118263822895e-10 0.0000000000000000e+00  -2.9568585508804669e-10 -5.7919097235391037e-10 0.0000000000000000e+00  -2.0292190540640908e-10 -6.0963944256929098e-10 0.0000000000000000e+00  -1.1835353482747524e-10 -6.2203087956227625e-10 0.0000000000000000e+00  -7.9616453369505812e-11 -5.7823033896629921e-10 0.0000000000000000e+00  -9.4070824777458956e-11 7.8472042388519089e-10 0.0000000000000000e+00  -1.3521716484176139e-10 7.3783208589420851e-10 0.0000000000000000e+00  -2.2417935740459702e-10 7.1518914164887514e-10 0.0000000000000000e+00  -3.1992899894034570e-10 6.7406938961083696e-10 0.0000000000000000e+00  -4.0971903248991138e-10 6.1439165083111044e-10 0.0000000000000000e+00  -4.8951313932723346e-10 5.3769235168789932e-10 0.0000000000000000e+00  -5.5707596582841809e-10 4.4623273651872139e-10 0.0000000000000000e+00  -6.1076384587546835e-10 3.4269769286512789e-10 0.0000000000000000e+00  -6.4931374322548142e-10 2.3005171105710153e-10 0.0000000000000000e+00  -6.7183262453651401e-10 1.1143819942685033e-10 0.0000000000000000e+00  -6.7781583762195192e-10 -9.8985990995371554e-12 0.0000000000000000e+00  -6.6716054867822015e-10 -1.3068034921749442e-10 0.0000000000000000e+00  -6.4016971643196673e-10 -2.4765737474228618e-10 0.0000000000000000e+00  -5.9754730711728247e-10 -3.5767270860533682e-10 0.0000000000000000e+00  -5.4038666834139781e-10 -4.5773181383094667e-10 0.0000000000000000e+00  -4.7016099528680414e-10 -5.4508191816624937e-10 0.0000000000000000e+00  -3.8875998574832589e-10 -6.1730353976087354e-10 0.0000000000000000e+00  -2.9877019159873334e-10 -6.7240775604310390e-10 0.0000000000000000e+00  -2.0484579005008119e-10 -7.0883737994185997e-10 0.0000000000000000e+00  -1.2042004290150669e-10 -7.2467876854517493e-10 0.0000000000000000e+00  -8.6492561167427562e-11 -6.8152635206845053e-10 0.0000000000000000e+00  -1.0388820247375878e-10 8.9506807589876048e-10 0.0000000000000000e+00  -1.4008327485833656e-10 8.4574017864776969e-10 0.0000000000000000e+00  -2.2963066205359579e-10 8.1837452756523497e-10 0.0000000000000000e+00  -3.2703384369791667e-10 7.7009091877024934e-10 0.0000000000000000e+00  -4.1849627407269502e-10 7.0099153456595382e-10 0.0000000000000000e+00  -4.9968055549378853e-10 6.1286543686312570e-10 0.0000000000000000e+00  -5.6826446120283081e-10 5.0824611878298008e-10 0.0000000000000000e+00  -6.2260139984736143e-10 3.9012553584864506e-10 0.0000000000000000e+00  -6.6146180201680630e-10 2.6181200872786209e-10 0.0000000000000000e+00  -6.8399593292845396e-10 1.2682100220317022e-10 0.0000000000000000e+00  -6.8973635777532055e-10 -1.1214013798822544e-11 0.0000000000000000e+00  -6.7860341128968708e-10 -1.4861789117219011e-10 0.0000000000000000e+00  -6.5090763988642677e-10 -2.8174430219455150e-10 0.0000000000000000e+00  -6.0734902630999247e-10 -4.0704701920434300e-10 0.0000000000000000e+00  -5.4901453188249574e-10 -5.2115764677566741e-10 0.0000000000000000e+00  -4.7738334298635026e-10 -6.2097371897968254e-10 0.0000000000000000e+00  -3.9438728186405327e-10 -7.0375756037305416e-10 0.0000000000000000e+00  -3.0274020195510150e-10 -7.6723587300742526e-10 0.0000000000000000e+00  -2.0745771335757867e-10 -8.0959757843369065e-10 0.0000000000000000e+00  -1.2312303212785560e-10 -8.2869077660852053e-10 0.0000000000000000e+00  -9.4659137586394151e-11 -7.8564593693978967e-10 0.0000000000000000e+00  -1.1520464107635069e-10 1.0072365752783664e-09 0.0000000000000000e+00  -1.4534155253120389e-10 9.5568672596204148e-10 0.0000000000000000e+00  -2.3514997319802762e-10 9.2360437094847695e-10 0.0000000000000000e+00  -3.3400881714932182e-10 8.6801960341015014e-10 0.0000000000000000e+00  -4.2695978040255049e-10 7.8923104503932373e-10 0.0000000000000000e+00  -5.0936007259442034e-10 6.8933442069637418e-10 0.0000000000000000e+00  -5.7880815545092029e-10 5.7119288674251779e-10 0.0000000000000000e+00  -6.3365997199139972e-10 4.3814559853041275e-10 0.0000000000000000e+00  -6.7272500060478139e-10 2.9386304193061608e-10 0.0000000000000000e+00  -6.9520328848130716e-10 1.4223295579086417e-10 0.0000000000000000e+00  -7.0067006423756209e-10 -1.2733540098863631e-11 0.0000000000000000e+00  -6.8907078628414141e-10 -1.6698113090878236e-10 0.0000000000000000e+00  -6.6072093015422449e-10 -3.1648210060790540e-10 0.0000000000000000e+00  -6.1631004643313054e-10 -4.5730898779647868e-10 0.0000000000000000e+00  -5.5691074393204169e-10 -5.8571553663425545e-10 0.0000000000000000e+00  -4.8400110729076829e-10 -6.9823069592260941e-10 0.0000000000000000e+00  -3.9954999103446033e-10 -7.9176556804093259e-10 0.0000000000000000e+00  -3.0639681503913565e-10 -8.6372237402162899e-10 0.0000000000000000e+00  -2.0993610084445367e-10 -9.1200459232201347e-10 0.0000000000000000e+00  -1.2602822258427101e-10 -9.3422025841878266e-10 0.0000000000000000e+00  -1.0411955692292396e-10 -8.9097290114564543e-10 0.0000000000000000e+00  -1.2806770002553521e-10 1.1208204486016508e-09 0.0000000000000000e+00  -1.5051999634008604e-10 1.0674077461353001e-09 0.0000000000000000e+00  -2.3980252243057458e-10 1.0305493757786366e-09 0.0000000000000000e+00  -3.3946666312162115e-10 9.6748915461788619e-10 0.0000000000000000e+00  -4.3327422647264277e-10 8.7874296845088283e-10 0.0000000000000000e+00  -5.1627982018659015e-10 7.6675844949899373e-10 0.0000000000000000e+00  -5.8603126623318385e-10 6.3477767436434886e-10 0.0000000000000000e+00  -6.4091856122489783e-10 4.8652401093891252e-10 0.0000000000000000e+00  -6.7981941160004751e-10 3.2604727128776208e-10 0.0000000000000000e+00  -7.0200752439166912e-10 1.5760491836456270e-10 0.0000000000000000e+00  -7.0711609092170046e-10 -1.4431500470748823e-11 0.0000000000000000e+00  -6.9511975503276475e-10 -1.8565082358934299e-10 0.0000000000000000e+00  -6.6633092513481048e-10 -3.5166698287113411e-10 0.0000000000000000e+00  -6.2141018218307171e-10 -5.0818526868422707e-10 0.0000000000000000e+00  -5.6139016596661046e-10 -6.5108071665120333e-10 0.0000000000000000e+00  -4.8771954310168180e-10 -7.7649562773832363e-10 0.0000000000000000e+00  -4.0237767947849195e-10 -8.8095704385451718e-10 0.0000000000000000e+00  -3.0831144682688356e-10 -9.6150339070092270e-10 0.0000000000000000e+00  -2.1130658603209448e-10 -1.0157212319405119e-09 0.0000000000000000e+00  -1.2863268672447261e-10 -1.0409750664027989e-09 0.0000000000000000e+00  -1.1489345264143543e-10 -9.9743743441304243e-10 0.0000000000000000e+00  -1.4253605151140972e-10 1.2348314504701422e-09 0.0000000000000000e+00  -1.5505567838524960e-10 1.1801191662895011e-09 0.0000000000000000e+00  -2.4246058693625608e-10 1.1383809760518903e-09 0.0000000000000000e+00  -3.4172646484052536e-10 1.0676441361969981e-09 0.0000000000000000e+00  -4.3521848114511159e-10 9.6868151341110995e-10 0.0000000000000000e+00  -5.1770098658454493e-10 8.4434416348412478e-10 0.0000000000000000e+00  -5.8672059965803134e-10 6.9830330327959657e-10 0.0000000000000000e+00  -6.4075944697023387e-10 5.3470172788771611e-10 0.0000000000000000e+00  -6.7881879740025206e-10 3.5798050518820708e-10 0.0000000000000000e+00  -7.0029082116968622e-10 1.7275460682818970e-10 0.0000000000000000e+00  -7.0489469157025809e-10 -1.6275027271022179e-11 0.0000000000000000e+00  -6.9264144033550797e-10 -2.0438188049648957e-10 0.0000000000000000e+00  -6.6382590426701854e-10 -3.8686040843719372e-10 0.0000000000000000e+00  -6.1904608604097421e-10 -5.5907542195650442e-10 0.0000000000000000e+00  -5.5924761643284519e-10 -7.1653018067647635e-10 0.0000000000000000e+00  -4.8579698581703145e-10 -8.5496439375927928e-10 0.0000000000000000e+00  -4.0063442248126192e-10 -9.7048523480657911e-10 0.0000000000000000e+00  -3.0677908323258377e-10 -1.0597210820670443e-09 0.0000000000000000e+00  -2.1041312378092354e-10 -1.1199006420827738e-09 0.0000000000000000e+00  -1.3034688888588920e-10 -1.1481348474438253e-09 0.0000000000000000e+00  -1.2701114713926217e-10 -1.1044510406601659e-09 0.0000000000000000e+00  -1.5867620402083344e-10 1.3475903401096320e-09 0.0000000000000000e+00  -1.5827327164686108e-10 1.2924103884463579e-09 0.0000000000000000e+00  -2.4176320034153226e-10 1.2456595925874884e-09 0.0000000000000000e+00  -3.3874916912857264e-10 1.1670306202263738e-09 0.0000000000000000e+00  -4.3008978675669886e-10 1.0576211637912274e-09 0.0000000000000000e+00  -5.1028622910936839e-10 9.2075484414591102e-10 0.0000000000000000e+00  -5.7695895312513562e-10 7.6059176437465142e-10 0.0000000000000000e+00  -6.2877186559037093e-10 5.8173036721442597e-10 0.0000000000000000e+00  -6.6493657594977915e-10 3.8900677842887570e-10 0.0000000000000000e+00  -6.8503424140068450e-10 1.8736443009841810e-10 0.0000000000000000e+00  -6.8891399334850337e-10 -1.8220959760284850e-11 0.0000000000000000e+00  -6.7663446685076989e-10 -2.2277498178435525e-10 0.0000000000000000e+00  -6.4845014676376599e-10 -4.2133769429165503e-10 0.0000000000000000e+00  -6.0484368203941381e-10 -6.0898147866569830e-10 0.0000000000000000e+00  -5.4659963685995271e-10 -7.8085778896171494e-10 0.0000000000000000e+00  -4.7491916180469689e-10 -9.3229080010967333e-10 0.0000000000000000e+00  -3.9162524528843461e-10 -1.0589250996930449e-09 0.0000000000000000e+00  -2.9975282891066379e-10 -1.1569180084580032e-09 0.0000000000000000e+00  -2.0587513936627401e-10 -1.2230812669013344e-09 0.0000000000000000e+00  -1.3047113840837505e-10 -1.2542510289870807e-09 0.0000000000000000e+00  -1.4051025117603283e-10 -1.2108213399032028e-09 0.0000000000000000e+00  -1.7656162379540317e-10 1.4565902315360475e-09 0.0000000000000000e+00  -1.5935915620554470e-10 1.4021146600763338e-09 0.0000000000000000e+00  -2.3606430213052618e-10 1.3501989464634863e-09 0.0000000000000000e+00  -3.2805536809910670e-10 1.2634575336635350e-09 0.0000000000000000e+00  -4.1458587781202664e-10 1.1434204862278977e-09 0.0000000000000000e+00  -4.8994