<?xml version="1.0"?>
<VTKFile type="UnstructuredGrid"  version="0.1"  >
<UnstructuredGrid>
<Piece  NumberOfPoints="651" NumberOfCells="1200">
<Points>
<DataArray  type="Float64"  NumberOfComponents="3"  format="ascii">0 0 0  50000 0 0  100000 0 0  150000 0 0  200000 0 0  250000 0 0  300000 0 0  350000 0 0  400000 0 0  450000 0 0  500000 0 0  550000 0 0  600000 0 0  650000 0 0  700000 0 0  750000 0 0  800000 0 0  850000 0 0  900000 0 0  950000 0 0  1000000 0 0  0 50000 0  50000 50000 0  100000 50000 0  150000 50000 0  200000 50000 0  250000 50000 0  300000 50000 0  350000 50000 0  400000 50000 0  450000 50000 0  500000 50000 0  550000 50000 0  600000 50000 0  650000 50000 0  700000 50000 0  750000 50000 0  800000 50000 0  850000 50000 0  900000 50000 0  950000 50000 0  1000000 50000 0  0 100000 0  50000 100000 0  100000 100000 0  150000 100000 0  200000 100000 0  250000 100000 0  300000 100000 0  350000 100000 0  400000 100000 0  450000 100000 0  500000 100000 0  550000 100000 0  600000 100000 0  650000 100000 0  700000 100000 0  750000 100000 0  800000 100000 0  850000 100000 0  900000 100000 0  950000 100000 0  1000000 100000 0  0 150000 0  50000 150000 0  100000 150000 0  150000 150000 0  200000 150000 0  250000 150000 0  300000 150000 0  350000 150000 0  400000 150000 0  450000 150000 0  500000 150000 0  550000 150000 0  600000 150000 0  650000 150000 0  700000 150000 0  750000 150000 0  800000 150000 0  850000 150000 0  900000 150000 0  950000 150000 0  1000000 150000 0  0 200000 0  50000 200000 0  100000 200000 0  150000 200000 0  200000 200000 0  250000 200000 0  300000 200000 0  350000 200000 0  400000 200000 0  450000 200000 0  500000 200000 0  550000 200000 0  600000 200000 0  650000 200000 0  700000 200000 0  750000 200000 0  800000 200000 0  850000 200000 0  900000 200000 0  950000 200000 0  1000000 200000 0  0 250000 0  50000 250000 0  100000 250000 0  150000 250000 0  200000 250000 0  250000 250000 0  300000 250000 0  350000 250000 0  400000 250000 0  450000 250000 0  500000 250000 0  550000 250000 0  600000 250000 0  650000 250000 0  700000 250000 0  750000 250000 0  800000 250000 0  850000 250000 0  900000 250000 0  950000 250000 0  1000000 250000 0  0 300000 0  50000 300000 0  100000 300000 0  150000 300000 0  200000 300000 0  250000 300000 0  300000 300000 0  350000 300000 0  400000 300000 0  450000 300000 0  500000 300000 0  550000 300000 0  600000 300000 0  650000 300000 0  700000 300000 0  750000 300000 0  800000 300000 0  850000 300000 0  900000 300000 0  950000 300000 0  1000000 300000 0  0 350000 0  50000 350000 0  100000 350000 0  150000 350000 0  200000 350000 0  250000 350000 0  300000 350000 0  350000 350000 0  400000 350000 0  450000 350000 0  500000 350000 0  550000 350000 0  600000 350000 0  650000 350000 0  700000 350000 0  750000 350000 0  800000 350000 0  850000 350000 0  900000 350000 0  950000 350000 0  1000000 350000 0  0 400000 0  50000 400000 0  100000 400000 0  150000 400000 0  200000 400000 0  250000 400000 0  300000 400000 0  350000 400000 0  400000 400000 0  450000 400000 0  500000 400000 0  550000 400000 0  600000 400000 0  650000 400000 0  700000 400000 0  750000 400000 0  800000 400000 0  850000 400000 0  900000 400000 0  950000 400000 0  1000000 400000 0  0 450000 0  50000 450000 0  100000 450000 0  150000 450000 0  200000 450000 0  250000 450000 0  300000 450000 0  350000 450000 0  400000 450000 0  450000 450000 0  500000 450000 0  550000 450000 0  600000 450000 0  650000 450000 0  700000 450000 0  750000 450000 0  800000 450000 0  850000 450000 0  900000 450000 0  950000 450000 0  1000000 450000 0  0 500000 0  50000 500000 0  100000 500000 0  150000 500000 0  200000 500000 0  250000 500000 0  300000 500000 0  350000 500000 0  400000 500000 0  450000 500000 0  500000 500000 0  550000 500000 0  600000 500000 0  650000 500000 0  700000 500000 0  750000 500000 0  800000 500000 0  850000 500000 0  900000 500000 0  950000 500000 0  1000000 500000 0  0 550000 0  50000 550000 0  100000 550000 0  150000 550000 0  200000 550000 0  250000 550000 0  300000 550000 0  350000 550000 0  400000 550000 0  450000 550000 0  500000 550000 0  550000 550000 0  600000 550000 0  650000 550000 0  700000 550000 0  750000 550000 0  800000 550000 0  850000 550000 0  900000 550000 0  950000 550000 0  1000000 550000 0  0 600000 0  50000 600000 0  100000 600000 0  150000 600000 0  200000 600000 0  250000 600000 0  300000 600000 0  350000 600000 0  400000 600000 0  450000 600000 0  500000 600000 0  550000 600000 0  600000 600000 0  650000 600000 0  700000 600000 0  750000 600000 0  800000 600000 0  850000 600000 0  900000 600000 0  950000 600000 0  1000000 600000 0  0 650000 0  50000 650000 0  100000 650000 0  150000 650000 0  200000 650000 0  250000 650000 0  300000 650000 0  350000 650000 0  400000 650000 0  450000 650000 0  500000 650000 0  550000 650000 0  600000 650000 0  650000 650000 0  700000 650000 0  750000 650000 0  800000 650000 0  850000 650000 0  900000 650000 0  950000 650000 0  1000000 650000 0  0 700000 0  50000 700000 0  100000 700000 0  150000 700000 0  200000 700000 0  250000 700000 0  300000 700000 0  350000 700000 0  400000 700000 0  450000 700000 0  500000 700000 0  550000 700000 0  600000 700000 0  650000 700000 0  700000 700000 0  750000 700000 0  800000 700000 0  850000 700000 0  900000 700000 0  950000 700000 0  1000000 700000 0  0 750000 0  50000 750000 0  100000 750000 0  150000 750000 0  200000 750000 0  250000 750000 0  300000 750000 0  350000 750000 0  400000 750000 0  450000 750000 0  500000 750000 0  550000 750000 0  600000 750000 0  650000 750000 0  700000 750000 0  750000 750000 0  800000 750000 0  850000 750000 0  900000 750000 0  950000 750000 0  1000000 750000 0  0 800000 0  50000 800000 0  100000 800000 0  150000 800000 0  200000 800000 0  250000 800000 0  300000 800000 0  350000 800000 0  400000 800000 0  450000 800000 0  500000 800000 0  550000 800000 0  600000 800000 0  650000 800000 0  700000 800000 0  750000 800000 0  800000 800000 0  850000 800000 0  900000 800000 0  950000 800000 0  1000000 800000 0  0 850000 0  50000 850000 0  100000 850000 0  150000 850000 0  200000 850000 0  250000 850000 0  300000 850000 0  350000 850000 0  400000 850000 0  450000 850000 0  500000 850000 0  550000 850000 0  600000 850000 0  650000 850000 0  700000 850000 0  750000 850000 0  800000 850000 0  850000 850000 0  900000 850000 0  950000 850000 0  1000000 850000 0  0 900000 0  50000 900000 0  100000 900000 0  150000 900000 0  200000 900000 0  250000 900000 0  300000 900000 0  350000 900000 0  400000 900000 0  450000 900000 0  500000 900000 0  550000 900000 0  600000 900000 0  650000 900000 0  700000 900000 0  750000 900000 0  800000 900000 0  850000 900000 0  900000 900000 0  950000 900000 0  1000000 900000 0  0 950000 0  50000 950000 0  100000 950000 0  150000 950000 0  200000 950000 0  250000 950000 0  300000 950000 0  350000 950000 0  400000 950000 0  450000 950000 0  500000 950000 0  550000 950000 0  600000 950000 0  650000 950000 0  700000 950000 0  750000 950000 0  800000 950000 0  850000 950000 0  900000 950000 0  950000 950000 0  1000000 950000 0  0 1000000 0  50000 1000000 0  100000 1000000 0  150000 1000000 0  200000 1000000 0  250000 1000000 0  300000 1000000 0  350000 1000000 0  400000 1000000 0  450000 1000000 0  500000 1000000 0  550000 1000000 0  600000 1000000 0  650000 1000000 0  700000 1000000 0  750000 1000000 0  800000 1000000 0  850000 1000000 0  900000 1000000 0  950000 1000000 0  1000000 1000000 0  0 1050000 0  50000 1050000 0  100000 1050000 0  150000 1050000 0  200000 1050000 0  250000 1050000 0  300000 1050000 0  350000 1050000 0  400000 1050000 0  450000 1050000 0  500000 1050000 0  550000 1050000 0  600000 1050000 0  650000 1050000 0  700000 1050000 0  750000 1050000 0  800000 1050000 0  850000 1050000 0  900000 1050000 0  950000 1050000 0  1000000 1050000 0  0 1100000 0  50000 1100000 0  100000 1100000 0  150000 1100000 0  200000 1100000 0  250000 1100000 0  300000 1100000 0  350000 1100000 0  400000 1100000 0  450000 1100000 0  500000 1100000 0  550000 1100000 0  600000 1100000 0  650000 1100000 0  700000 1100000 0  750000 1100000 0  800000 1100000 0  850000 1100000 0  900000 1100000 0  950000 1100000 0  1000000 1100000 0  0 1150000 0  50000 1150000 0  100000 1150000 0  150000 1150000 0  200000 1150000 0  250000 1150000 0  300000 1150000 0  350000 1150000 0  400000 1150000 0  450000 1150000 0  500000 1150000 0  550000 1150000 0  600000 1150000 0  650000 1150000 0  700000 1150000 0  750000 1150000 0  800000 1150000 0  850000 1150000 0  900000 1150000 0  950000 1150000 0  1000000 1150000 0  0 1200000 0  50000 1200000 0  100000 1200000 0  150000 1200000 0  200000 1200000 0  250000 1200000 0  300000 1200000 0  350000 1200000 0  400000 1200000 0  450000 1200000 0  500000 1200000 0  550000 1200000 0  600000 1200000 0  650000 1200000 0  700000 1200000 0  750000 1200000 0  800000 1200000 0  850000 1200000 0  900000 1200000 0  950000 1200000 0  1000000 1200000 0  0 1250000 0  50000 1250000 0  100000 1250000 0  150000 1250000 0  200000 1250000 0  250000 1250000 0  300000 1250000 0  350000 1250000 0  400000 1250000 0  450000 1250000 0  500000 1250000 0  550000 1250000 0  600000 1250000 0  650000 1250000 0  700000 1250000 0  750000 1250000 0  800000 1250000 0  850000 1250000 0  900000 1250000 0  950000 1250000 0  1000000 1250000 0  0 1300000 0  50000 1300000 0  100000 1300000 0  150000 1300000 0  200000 1300000 0  250000 1300000 0  300000 1300000 0  350000 1300000 0  400000 1300000 0  450000 1300000 0  500000 1300000 0  550000 1300000 0  600000 1300000 0  650000 1300000 0  700000 1300000 0  750000 1300000 0  800000 1300000 0  850000 1300000 0  900000 1300000 0  950000 1300000 0  1000000 1300000 0  0 1350000 0  50000 1350000 0  100000 1350000 0  150000 1350000 0  200000 1350000 0  250000 1350000 0  300000 1350000 0  350000 1350000 0  400000 1350000 0  450000 1350000 0  500000 1350000 0  550000 1350000 0  600000 1350000 0  650000 1350000 0  700000 135
[...]
<PointData  Vectors="f_1505"> 
<DataArray  type="Float64"  Name="f_1505"  NumberOfComponents="3" format="ascii">-8.1129479666706125e-11 6.8183144597785111e-11 0.0000000000000000e+00  -1.4936252969431441e-10 5.4594050336538582e-11 0.0000000000000000e+00  -2.7101898148472795e-10 4.8302292213665801e-11 0.0000000000000000e+00  -3.8870561625519861e-10 4.2834970372096415e-11 0.0000000000000000e+00  -4.9646995851086735e-10 3.6753716079629009e-11 0.0000000000000000e+00  -5.9115160144461259e-10 2.9849656420397054e-11 0.0000000000000000e+00  -6.7019674834019295e-10 2.2159667291838641e-11 0.0000000000000000e+00  -7.3154750444690566e-10 1.3811821009914524e-11 0.0000000000000000e+00  -7.7363505536731433e-10 4.9825396168192210e-12 0.0000000000000000e+00  -7.9540516121531805e-10 -4.1238112677369462e-12 0.0000000000000000e+00  -7.9633988018040131e-10 -1.3287333249413660e-11 0.0000000000000000e+00  -7.7646801703346209e-10 -2.2281830029015188e-11 0.0000000000000000e+00  -7.3636285396022997e-10 -3.0882711195688149e-11 0.0000000000000000e+00  -6.7712711948714286e-10 -3.8874373789753871e-11 0.0000000000000000e+00  -6.0036780929056041e-10 -4.6057905905704370e-11 0.0000000000000000e+00  -5.0817712193274461e-10 -5.2262172171820609e-11 0.0000000000000000e+00  -4.0320534769374953e-10 -5.7370619794284266e-11 0.0000000000000000e+00  -2.8922158971564892e-10 -6.1399371934896286e-11 0.0000000000000000e+00  -1.7378435754221518e-10 -6.4412554533271283e-11 0.0000000000000000e+00  -7.9627514985372947e-11 -6.1943397951408340e-11 0.0000000000000000e+00  -3.9827933535356367e-11 -4.0834272427935305e-11 0.0000000000000000e+00  -6.9545180241634002e-11 1.3054115108373975e-10 0.0000000000000000e+00  -1.2321988083386356e-10 1.1931689544885987e-10 0.0000000000000000e+00  -2.1833205184595718e-10 1.2381794499915704e-10 0.0000000000000000e+00  -3.2450986584703167e-10 1.1797357354113204e-10 0.0000000000000000e+00  -4.2603764932082406e-10 1.0727734041583984e-10 0.0000000000000000e+00  -5.1757509454893278e-10 9.3178586762789067e-11 0.0000000000000000e+00  -5.9608589555613480e-10 7.6404170601891852e-11 0.0000000000000000e+00  -6.5928624845740561e-10 5.7526927337080336e-11 0.0000000000000000e+00  -7.0543474200633219e-10 3.7100168950547066e-11 0.0000000000000000e+00  -7.3330302661568254e-10 1.5688203268813491e-11 0.0000000000000000e+00  -7.4217704042390500e-10 -6.1321621129345723e-12 0.0000000000000000e+00  -7.3186150848204696e-10 -2.7779335869348433e-11 0.0000000000000000e+00  -7.0267918780776655e-10 -4.8677604853148591e-11 0.0000000000000000e+00  -6.5546253567514094e-10 -6.8268090393375004e-11 0.0000000000000000e+00  -5.9153968246000787e-10 -8.6017986782964143e-11 0.0000000000000000e+00  -5.1272546310949009e-10 -1.0142476901003772e-10 0.0000000000000000e+00  -4.2136207765260638e-10 -1.1400336129667270e-10 0.0000000000000000e+00  -3.2060385320279654e-10 -1.2318280369582015e-10 0.0000000000000000e+00  -2.1577004328262691e-10 -1.2765300537334912e-10 0.0000000000000000e+00  -1.1989382293311627e-10 -1.2234707637342509e-10 0.0000000000000000e+00  -6.2476018011342251e-11 -7.8122105839263244e-11 0.0000000000000000e+00  -6.8959163814703448e-11 2.4086957455487125e-10 0.0000000000000000e+00  -1.2561410913490208e-10 2.1328200850127058e-10 0.0000000000000000e+00  -2.1559308874653273e-10 2.1729041756389997e-10 0.0000000000000000e+00  -3.1262032988291245e-10 2.0871104401823791e-10 0.0000000000000000e+00  -4.0594155632795632e-10 1.9142255615773127e-10 0.0000000000000000e+00  -4.9076209679486994e-10 1.6765486120661986e-10 0.0000000000000000e+00  -5.6389227427581331e-10 1.3883614698668437e-10 0.0000000000000000e+00  -6.2300692689564490e-10 1.0608868493300026e-10 0.0000000000000000e+00  -6.6636837159788994e-10 7.0451353265287290e-11 0.0000000000000000e+00  -6.9275810343491972e-10 3.2954917433878289e-11 0.0000000000000000e+00  -7.0146303148338364e-10 -5.3611495279700883e-12 0.0000000000000000e+00  -6.9227219230183071e-10 -4.3454415259896774e-11 0.0000000000000000e+00  -6.6547242654606656e-10 -8.0293446333884566e-11 0.0000000000000000e+00  -6.2183966586062699e-10 -1.1487307674450613e-10 0.0000000000000000e+00  -5.6262702998030220e-10 -1.4622541032662754e-10 0.0000000000000000e+00  -4.8955899092420297e-10 -1.7341737736674408e-10 0.0000000000000000e+00  -4.0486708639082589e-10 -1.9551143153971752e-10 0.0000000000000000e+00  -3.1150057091500193e-10 -2.1142272971342831e-10 0.0000000000000000e+00  -2.1401913333756425e-10 -2.1949010214823258e-10 0.0000000000000000e+00  -1.2285324723770673e-10 -2.1638599582832707e-10 0.0000000000000000e+00  -6.5565584010114929e-11 -1.6579221637625209e-10 0.0000000000000000e+00  -7.1889855184171127e-11 3.4939987030164707e-10 0.0000000000000000e+00  -1.2526438078718311e-10 3.1592450916920462e-10 0.0000000000000000e+00  -2.1344936971108593e-10 3.1471063596873032e-10 0.0000000000000000e+00  -3.0695400114449996e-10 3.0141936763986234e-10 0.0000000000000000e+00  -3.9583046958336742e-10 2.7697043785304783e-10 0.0000000000000000e+00  -4.7629884978999595e-10 2.4333175384365179e-10 0.0000000000000000e+00  -5.4567071403121911e-10 2.0227666013841917e-10 0.0000000000000000e+00  -6.0178882759096655e-10 1.5539269750285557e-10 0.0000000000000000e+00  -6.4298333029855795e-10 1.0419975197969012e-10 0.0000000000000000e+00  -6.6806814279536934e-10 5.0210423274784145e-11 0.0000000000000000e+00  -6.7634124035331707e-10 -5.0539541418620108e-12 0.0000000000000000e+00  -6.6758405552711821e-10 -6.0071093081757301e-11 0.0000000000000000e+00  -6.4205660889841302e-10 -1.1333621110342086e-10 0.0000000000000000e+00  -6.0048677546786128e-10 -1.6338323014065870e-10 0.0000000000000000e+00  -5.4405368485037717e-10 -2.0880253741956547e-10 0.0000000000000000e+00  -4.7436921095311522e-10 -2.4824818810719926e-10 0.0000000000000000e+00  -3.9347805241399051e-10 -2.8042534795199588e-10 0.0000000000000000e+00  -3.0397737754077770e-10 -3.0405368073905176e-10 0.0000000000000000e+00  -2.0976703862502165e-10 -3.1779541524885742e-10 0.0000000000000000e+00  -1.2059109677705686e-10 -3.1963406135087223e-10 0.0000000000000000e+00  -6.5855863896458645e-11 -2.7223797991619971e-10 0.0000000000000000e+00  -7.6668244868364293e-11 4.5557862622162988e-10 0.0000000000000000e+00  -1.2557394956836718e-10 4.1879402239750890e-10 0.0000000000000000e+00  -2.1259284647112507e-10 4.1224201873599365e-10 0.0000000000000000e+00  -3.0490220913927000e-10 3.9299903910826534e-10 0.0000000000000000e+00  -3.9199017323082829e-10 3.6087660379246031e-10 0.0000000000000000e+00  -4.7035692505444458e-10 3.1736259234838410e-10 0.0000000000000000e+00  -5.3767284129618861e-10 2.6431174001717991e-10 0.0000000000000000e+00  -5.9201535471890260e-10 2.0363521748004218e-10 0.0000000000000000e+00  -6.3183824767623441e-10 1.3726887985540305e-10 0.0000000000000000e+00  -6.5601623922902060e-10 6.7176794667036706e-11 0.0000000000000000e+00  -6.6387282681972215e-10 -4.6550024566873615e-12 0.0000000000000000e+00  -6.5519070091945696e-10 -7.6237677644240117e-11 0.0000000000000000e+00  -6.3021013222641049e-10 -1.4560702240896115e-10 0.0000000000000000e+00  -5.8961722544660290e-10 -2.1085444370788934e-10 0.0000000000000000e+00  -5.3452215833124825e-10 -2.7015805754172419e-10 0.0000000000000000e+00  -4.6642958728654820e-10 -3.2181251651977339e-10 0.0000000000000000e+00  -3.8722212121822484e-10 -3.6426215776101605e-10 0.0000000000000000e+00  -2.9928150496252847e-10 -3.9615553444348066e-10 0.0000000000000000e+00  -2.0637861948859951e-10 -4.1638602903934355e-10 0.0000000000000000e+00  -1.1876532564949129e-10 -4.2328310690825282e-10 0.0000000000000000e+00  -6.8117880411661758e-11 -3.7970119078016043e-10 0.0000000000000000e+00  -8.2997242774062429e-11 5.6074467330626323e-10 0.0000000000000000e+00  -1.2722620453972934e-10 5.2135979765780996e-10 0.0000000000000000e+00  -2.1362389545368294e-10 5.0996360322139728e-10 0.0000000000000000e+00  -3.0598330097020234e-10 4.8428148943692877e-10 0.0000000000000000e+00  -3.9290838508617866e-10 4.4400786888335428e-10 0.0000000000000000e+00  -4.7078546909728939e-10 3.9040731934087442e-10 0.0000000000000000e+00  -5.3741349801293462e-10 3.2537107222722918e-10 0.0000000000000000e+00  -5.9102415854854909e-10 2.5104952447117168e-10 0.0000000000000000e+00  -6.3018411358579331e-10 1.6973279500255458e-10 0.0000000000000000e+00  -6.5383693140276727e-10 8.3797048347031127e-11 0.0000000000000000e+00  -6.6134148999704659e-10 -4.3333650905050233e-12 0.0000000000000000e+00  -6.5249086345285019e-10 -9.2223628492088990e-11 0.0000000000000000e+00  -6.2751499564457145e-10 -1.7746938814477562e-10 0.0000000000000000e+00  -5.8707016431375052e-10 -2.5774088740257881e-10 0.0000000000000000e+00  -5.3221651097056670e-10 -3.3083041914238575e-10 0.0000000000000000e+00  -4.6438823669546686e-10 -3.9470554806138447e-10 0.0000000000000000e+00  -3.8538695342129466e-10 -4.4757546887458319e-10 0.0000000000000000e+00  -2.9755525903366862e-10 -4.8797925583286954e-10 0.0000000000000000e+00  -2.0484450877758488e-10 -5.1480711755684275e-10 0.0000000000000000e+00  -1.1832832427875657e-10 -5.2629607252140895e-10 0.0000000000000000e+00  -7.2099454119881965e-11 -4.8554847543670460e-10 0.0000000000000000e+00  -9.0781056366446890e-11 6.6609877980300254e-10 0.0000000000000000e+00  -1.3020911183337133e-10 6.2437462104921139e-10 0.0000000000000000e+00  -2.1651254390990564e-10 6.0849990018736343e-10 0.0000000000000000e+00  -3.0973285603262020e-10 5.7625706061401603e-10 0.0000000000000000e+00  -3.9749850529334666e-10 5.2748965269461457e-10 0.0000000000000000e+00  -4.7593828107050499e-10 4.6349928247890194e-10 0.0000000000000000e+00  -5.4283465081110437e-10 3.8628620053025461e-10 0.0000000000000000e+00  -5.9648214347559757e-10 2.9822998401568857e-10 0.0000000000000000e+00  -6.3552022632356773e-10 2.0194484674462806e-10 0.0000000000000000e+00  -6.5894976012718920e-10 1.0019024146672178e-10 0.0000000000000000e+00  -6.6616605560395506e-10 -4.1948746790592121e-12 0.0000000000000000e+00  -6.5697887278484423e-10 -1.0834942119259735e-10 0.0000000000000000e+00  -6.3161760597624178e-10 -2.0944615641819172e-10 0.0000000000000000e+00  -5.9072364236377023e-10 -3.0474969079883465e-10 0.0000000000000000e+00  -5.3533203408804466e-10 -3.9167925322280408e-10 0.0000000000000000e+00  -4.6685025210763249e-10 -4.6787966374474515e-10 0.0000000000000000e+00  -3.8707330504602007e-10 -5.3130468687593427e-10 0.0000000000000000e+00  -2.9841477041758482e-10 -5.8030824264081748e-10 0.0000000000000000e+00  -2.0512527754646573e-10 -6.1362817520847921e-10 0.0000000000000000e+00  -1.1920401750321713e-10 -6.2927996738199083e-10 0.0000000000000000e+00  -7.7558305768157682e-11 -5.9036602221462167e-10 0.0000000000000000e+00  -9.9985704025066103e-11 7.7253453502779974e-10 0.0000000000000000e+00  -1.3429016831428994e-10 7.2860284423252984e-10 0.0000000000000000e+00  -2.2085207260261852e-10 7.0848400848166500e-10 0.0000000000000000e+00  -3.1544536752674334e-10 6.6963904307860105e-10 0.0000000000000000e+00  -4.0463706031504584e-10 6.1212542078065729e-10 0.0000000000000000e+00  -4.8425225352347141e-10 5.3742371012187821e-10 0.0000000000000000e+00  -5.5199085672543895e-10 4.4773224085258763e-10 0.0000000000000000e+00  -6.0615198401600804e-10 3.4569087909899002e-10 0.0000000000000000e+00  -6.4541215313103124e-10 2.3423762099893862e-10 0.0000000000000000e+00  -6.6881386221691230e-10 1.1650262902632900e-10 0.0000000000000000e+00  -6.7578555318372277e-10 -4.2764104459512015e-12 0.0000000000000000e+00  -6.6615690844603874e-10 -1.2482758089675288e-10 0.0000000000000000e+00  -6.4016418355093510e-10 -2.4191370643117575e-10 0.0000000000000000e+00  -5.9844618245824283e-10 -3.5240219276342894e-10 0.0000000000000000e+00  -5.4203313210457705e-10 -4.5333986264688775e-10 0.0000000000000000e+00  -4.7233798131414964e-10 -5.4203597152451906e-10 0.0000000000000000e+00  -3.9119466488742606e-10 -6.1615403812356548e-10 0.0000000000000000e+00  -3.0113915238740857e-10 -6.7380038524054231e-10 0.0000000000000000e+00  -2.0676578072634913e-10 -7.1348756012685184e-10 0.0000000000000000e+00  -1.2109679786204432e-10 -7.3298478473555026e-10 0.0000000000000000e+00  -8.4387260137934953e-11 -6.9514611419365233e-10 0.0000000000000000e+00  -1.1061037045552826e-10 8.8056105039391233e-10 0.0000000000000000e+00  -1.3913885078712451e-10 8.3456426557162475e-10 0.0000000000000000e+00  -2.2602523068433572e-10 8.1033352786811159e-10 0.0000000000000000e+00  -3.2218967096205983e-10 7.6483207926024421e-10 0.0000000000000000e+00  -4.1303080380998404e-10 6.9834808612619940e-10 0.0000000000000000e+00  -4.9405321908741024e-10 6.1261392761887877e-10 0.0000000000000000e+00  -5.6285425598317251e-10 5.1009673349335168e-10 0.0000000000000000e+00  -6.1771415511390363e-10 3.9373893246737422e-10 0.0000000000000000e+00  -6.5732934177890712e-10 2.6681867191322459e-10 0.0000000000000000e+00  -6.8077591815391229e-10 1.3283647926977345e-10 0.0000000000000000e+00  -6.8751405124419833e-10 -4.5802441091375498e-12 0.0000000000000000e+00  -6.7739521904973581e-10 -1.4176054651042015e-10 0.0000000000000000e+00  -6.5066588274803228e-10 -2.7506728546444115e-10 0.0000000000000000e+00  -6.0796736828033513e-10 -4.0097466629838701e-10 0.0000000000000000e+00  -5.5033369411246521e-10 -5.1615114425885739e-10 0.0000000000000000e+00  -4.7919699030290040e-10 -6.1755080337298099e-10 0.0000000000000000e+00  -3.9644788087742737e-10 -7.0251198510866748e-10 0.0000000000000000e+00  -3.0476239401511943e-10 -7.6884835937991018e-10 0.0000000000000000e+00  -2.0910263083591653e-10 -8.1481137502261525e-10 0.0000000000000000e+00  -1.2363090703184816e-10 -8.3792584351071706e-10 0.0000000000000000e+00  -9.2537315493446263e-11 -8.0064344081314197e-10 0.0000000000000000e+00  -1.2267342877296726e-10 9.9025149963977115e-10 0.0000000000000000e+00  -1.4435410930047221e-10 9.4242760920988341e-10 0.0000000000000000e+00  -2.3125628103236587e-10 9.1414487579797763e-10 0.0000000000000000e+00  -3.2881888651323962e-10 8.6189904141429434e-10 0.0000000000000000e+00  -4.2115226279413983e-10 7.8622134583806796e-10 0.0000000000000000e+00  -5.0343237945669179e-10 6.8914192110986435e-10 0.0000000000000000e+00  -5.7316004359657178e-10 5.7345075887657188e-10 0.0000000000000000e+00  -6.2860133690559152e-10 4.4243409772813181e-10 0.0000000000000000e+00  -6.6847734925890700e-10 2.9973204357069458e-10 0.0000000000000000e+00  -6.9190355713098867e-10 1.4922004940372656e-10 0.0000000000000000e+00  -6.9837709201634971e-10 -5.0918500646987947e-12 0.0000000000000000e+00  -6.8777367611434208e-10 -1.5914593159798101e-10 0.0000000000000000e+00  -6.6034843456966658e-10 -3.0891617086845352e-10 0.0000000000000000e+00  -6.1674021623323190e-10 -4.5048774853016521e-10 0.0000000000000000e+00  -5.5798022860393095e-10 -5.8014355357289294e-10 0.0000000000000000e+00  -4.8551355810020131e-10 -6.9446173773590626e-10 0.0000000000000000e+00  -4.0128266348954480e-10 -7.9042293243818317e-10 0.0000000000000000e+00  -3.0810205994940191e-10 -8.6551195922356918e-10 0.0000000000000000e+00  -2.1132071168330276e-10 -9.1769504521616235e-10 0.0000000000000000e+00  -1.2636989387807544e-10 -9.4425681687880881e-10 0.0000000000000000e+00  -1.0198929733773736e-10 -9.0722427384632232e-10 0.0000000000000000e+00  -1.3620421320543385e-10 1.1011805489335908e-09 0.0000000000000000e+00  -1.4946085993754256e-10 1.0519293008571321e-09 0.0000000000000000e+00  -2.3560958350326956e-10 1.0196090028987602e-09 0.0000000000000000e+00  -3.3394890326074595e-10 9.6050248416993433e-10 0.0000000000000000e+00  -4.2717721137048721e-10 8.7540806579736235e-10 0.0000000000000000e+00  -5.1013958095407131e-10 7.6669480380527323e-10 0.0000000000000000e+00  -5.8026504745535594e-10 6.3752304926200613e-10 0.0000000000000000e+00  -6.3583455597731088e-10 4.9156133327304381e-10 0.0000000000000000e+00  -6.7562148873660715e-10 3.3283261240404367e-10 0.0000000000000000e+00  -6.9880375967273499e-10 1.6558957544926274e-10 0.0000000000000000e+00  -7.0493064894556089e-10 -5.7871511699300754e-12 0.0000000000000000e+00  -6.9390670536207261e-10 -1.7687236355713368e-10 0.0000000000000000e+00  -6.6598871895971406e-10 -3.4326958273923257e-10 0.0000000000000000e+00  -6.2179576618118043e-10 -5.0068498289841277e-10 0.0000000000000000e+00  -5.6233188430436425e-10 -6.4501202277987521e-10 0.0000000000000000e+00  -4.8902796232821939e-10 -7.7243326831306397e-10 0.0000000000000000e+00  -4.0385301051809850e-10 -8.7953922025936102e-10 0.0000000000000000e+00  -3.0974379446551074e-10 -9.6344937753626958e-10 0.0000000000000000e+00  -2.1245166915448989e-10 -1.0218182500499602e-09 0.0000000000000000e+00  -1.2880921413007931e-10 -1.0516893087182629e-09 0.0000000000000000e+00  -1.1274248970856267e-10 -1.0148024639214723e-09 0.0000000000000000e+00  -1.5123753311900133e-10 1.2123413043490214e-09 0.0000000000000000e+00  -1.5389408959926410e-10 1.1622870951772198e-09 0.0000000000000000e+00  -2.3796257703513554e-10 1.1259208327891107e-09 0.0000000000000000e+00  -3.3591173830414287e-10 1.0598229462790149e-09 0.0000000000000000e+00  -4.2890733482521647e-10 9.6510301650024941e-10 0.0000000000000000e+00  -5.1146988042345327e-10 8.4451856401011049e-10 0.0000000000000000e+00  -5.8100046605195584e-10 7.0165070740936246e-10 0.0000000000000000e+00  -6.3584908957115381e-10 5.4058831671330594e-10 0.0000000000000000e+00  -6.7489450059931502e-10 3.6575390845120636e-10 0.0000000000000000e+00  -6.9742090161004434e-10 1.8177095234463205e-10 0.0000000000000000e+00  -7.0305778229178028e-10 -6.6344245554085274e-12 0.0000000000000000e+00  -6.9174646282372874e-10 -1.9470442659077590e-10 0.0000000000000000e+00  -6.6373206588147627e-10 -3.7770604075416008e-10 0.0000000000000000e+00  -6.1958167017151491e-10 -5.5098909635362956e-10 0.0000000000000000e+00  -5.6022658415712407e-10 -7.1006149508404679e-10 0.0000000000000000e+00  -4.8703238211328617e-10 -8.5069251593151499e-10 0.0000000000000000e+00  -4.0194706894249763e-10 -9.6904653924402493e-10 0.0000000000000000e+00  -3.0799750273148547e-10 -1.0618330158674584e-09 0.0000000000000000e+00  -2.1134666967279633e-10 -1.1263567537710776e-09 0.0000000000000000e+00  -1.3035885682086673e-10 -1.1594103272552154e-09 0.0000000000000000e+00  -1.2480833868129851e-10 -1.1227741740125771e-09 0.0000000000000000e+00  -1.6780986900072421e-10 1.3220376637851514e-09 0.0000000000000000e+00  -1.5697673822331907e-10 1.2720967188340133e-09 0.0000000000000000e+00  -2.3696424578857833e-10 1.2316717051277870e-09 0.0000000000000000e+00  -3.3268996033090786e-10 1.1584526208172842e-09 0.0000000000000000e+00  -4.2367407475698964e-10 1.0539329587187827e-09 0.0000000000000000e+00  -5.0413237216336827e-10 9.2132730007731112e-10 0.0000000000000000e+00  -5.7150594333276532e-10 7.6469959721566749e-10 0.0000000000000000e+00  -6.2429857358980209e-10 5.8860017866142230e-10 0.0000000000000000e+00  -6.6157850431064480e-10 3.9786143457776198e-10 0.0000000000000000e+00  -6.8280592459037156e-10 1.9745565860548214e-10 0.0000000000000000e+00  -6.8773496370343508e-10 -7.5932617844392016e-12 0.0000000000000000e+00  -6.7635615233033513e-10 -2.1225623063788819e-10 0.0000000000000000e+00  -6.4888176074109626e-10 -4.1152354120316516e-10 0.0000000000000000e+00  -6.0577581989520732e-10 -6.0043249598325203e-10 0.0000000000000000e+00  -5.4782465674102683e-10 -7.7412220826917113e-10 0.0000000000000000e+00  -4.7624741324548059e-10 -9.2793359348899549e-10 0.0000000000000000e+00  -3.9289563168291093e-10 -1.0575611866971405e-09 0.0000000000000000e+00  -3.0083341366673948e-10 -1.1592435229596169e-09 0.0000000000000000e+00  -2.0663445411009951e-10 -1.2298777488375161e-09 0.0000000000000000e+00  -1.3032015900534355e-10 -1.2659829972074369e-09 0.0000000000000000e+00  -1.3820629810275615e-10 -1.2299331010075960e-09 0.0000000000000000e+00  -1.8595723718941275e-10 1.4277484432838998e-09 0.0000000000000000e+00  -1.5789352036663783e-10 1.3792050125885787e-09 0.0000000000000000e+00  -2.3098323580530321e-10 1.3347177431319430e-09 0.0000000000000000e+00  -3.2183480761867372e-10 1.2542602525818100e-09 0.0000000000000000e+00  -4.0822151967089080e-10 1.1398225104995415e-09 0.0000000000000000e+00  -4.840