<?xml version="1.0"?>
<VTKFile type="UnstructuredGrid"  version="0.1"  >
<UnstructuredGrid>
<Piece  NumberOfPoints="651" NumberOfCells="1200">
<Points>
<DataArray  type="Float64"  NumberOfComponents="3"  format="ascii">0 0 0  50000 0 0  100000 0 0  150000 0 0  200000 0 0  250000 0 0  300000 0 0  350000 0 0  400000 0 0  450000 0 0  500000 0 0  550000 0 0  600000 0 0  650000 0 0  700000 0 0  750000 0 0  800000 0 0  850000 0 0  900000 0 0  950000 0 0  1000000 0 0  0 50000 0  50000 50000 0  100000 50000 0  150000 50000 0  200000 50000 0  250000 50000 0  300000 50000 0  350000 50000 0  400000 50000 0  450000 50000 0  500000 50000 0  550000 50000 0  600000 50000 0  650000 50000 0  700000 50000 0  750000 50000 0  800000 50000 0  850000 50000 0  900000 50000 0  950000 50000 0  1000000 50000 0  0 100000 0  50000 100000 0  100000 100000 0  150000 100000 0  200000 100000 0  250000 100000 0  300000 100000 0  350000 100000 0  400000 100000 0  450000 100000 0  500000 100000 0  550000 100000 0  600000 100000 0  650000 100000 0  700000 100000 0  750000 100000 0  800000 100000 0  850000 100000 0  900000 100000 0  950000 100000 0  1000000 100000 0  0 150000 0  50000 150000 0  100000 150000 0  150000 150000 0  200000 150000 0  250000 150000 0  300000 150000 0  350000 150000 0  400000 150000 0  450000 150000 0  500000 150000 0  550000 150000 0  600000 150000 0  650000 150000 0  700000 150000 0  750000 150000 0  800000 150000 0  850000 150000 0  900000 150000 0  950000 150000 0  1000000 150000 0  0 200000 0  50000 200000 0  100000 200000 0  150000 200000 0  200000 200000 0  250000 200000 0  300000 200000 0  350000 200000 0  400000 200000 0  450000 200000 0  500000 200000 0  550000 200000 0  600000 200000 0  650000 200000 0  700000 200000 0  750000 200000 0  800000 200000 0  850000 200000 0  900000 200000 0  950000 200000 0  1000000 200000 0  0 250000 0  50000 250000 0  100000 250000 0  150000 250000 0  200000 250000 0  250000 250000 0  300000 250000 0  350000 250000 0  400000 250000 0  450000 250000 0  500000 250000 0  550000 250000 0  600000 250000 0  650000 250000 0  700000 250000 0  750000 250000 0  800000 250000 0  850000 250000 0  900000 250000 0  950000 250000 0  1000000 250000 0  0 300000 0  50000 300000 0  100000 300000 0  150000 300000 0  200000 300000 0  250000 300000 0  300000 300000 0  350000 300000 0  400000 300000 0  450000 300000 0  500000 300000 0  550000 300000 0  600000 300000 0  650000 300000 0  700000 300000 0  750000 300000 0  800000 300000 0  850000 300000 0  900000 300000 0  950000 300000 0  1000000 300000 0  0 350000 0  50000 350000 0  100000 350000 0  150000 350000 0  200000 350000 0  250000 350000 0  300000 350000 0  350000 350000 0  400000 350000 0  450000 350000 0  500000 350000 0  550000 350000 0  600000 350000 0  650000 350000 0  700000 350000 0  750000 350000 0  800000 350000 0  850000 350000 0  900000 350000 0  950000 350000 0  1000000 350000 0  0 400000 0  50000 400000 0  100000 400000 0  150000 400000 0  200000 400000 0  250000 400000 0  300000 400000 0  350000 400000 0  400000 400000 0  450000 400000 0  500000 400000 0  550000 400000 0  600000 400000 0  650000 400000 0  700000 400000 0  750000 400000 0  800000 400000 0  850000 400000 0  900000 400000 0  950000 400000 0  1000000 400000 0  0 450000 0  50000 450000 0  100000 450000 0  150000 450000 0  200000 450000 0  250000 450000 0  300000 450000 0  350000 450000 0  400000 450000 0  450000 450000 0  500000 450000 0  550000 450000 0  600000 450000 0  650000 450000 0  700000 450000 0  750000 450000 0  800000 450000 0  850000 450000 0  900000 450000 0  950000 450000 0  1000000 450000 0  0 500000 0  50000 500000 0  100000 500000 0  150000 500000 0  200000 500000 0  250000 500000 0  300000 500000 0  350000 500000 0  400000 500000 0  450000 500000 0  500000 500000 0  550000 500000 0  600000 500000 0  650000 500000 0  700000 500000 0  750000 500000 0  800000 500000 0  850000 500000 0  900000 500000 0  950000 500000 0  1000000 500000 0  0 550000 0  50000 550000 0  100000 550000 0  150000 550000 0  200000 550000 0  250000 550000 0  300000 550000 0  350000 550000 0  400000 550000 0  450000 550000 0  500000 550000 0  550000 550000 0  600000 550000 0  650000 550000 0  700000 550000 0  750000 550000 0  800000 550000 0  850000 550000 0  900000 550000 0  950000 550000 0  1000000 550000 0  0 600000 0  50000 600000 0  100000 600000 0  150000 600000 0  200000 600000 0  250000 600000 0  300000 600000 0  350000 600000 0  400000 600000 0  450000 600000 0  500000 600000 0  550000 600000 0  600000 600000 0  650000 600000 0  700000 600000 0  750000 600000 0  800000 600000 0  850000 600000 0  900000 600000 0  950000 600000 0  1000000 600000 0  0 650000 0  50000 650000 0  100000 650000 0  150000 650000 0  200000 650000 0  250000 650000 0  300000 650000 0  350000 650000 0  400000 650000 0  450000 650000 0  500000 650000 0  550000 650000 0  600000 650000 0  650000 650000 0  700000 650000 0  750000 650000 0  800000 650000 0  850000 650000 0  900000 650000 0  950000 650000 0  1000000 650000 0  0 700000 0  50000 700000 0  100000 700000 0  150000 700000 0  200000 700000 0  250000 700000 0  300000 700000 0  350000 700000 0  400000 700000 0  450000 700000 0  500000 700000 0  550000 700000 0  600000 700000 0  650000 700000 0  700000 700000 0  750000 700000 0  800000 700000 0  850000 700000 0  900000 700000 0  950000 700000 0  1000000 700000 0  0 750000 0  50000 750000 0  100000 750000 0  150000 750000 0  200000 750000 0  250000 750000 0  300000 750000 0  350000 750000 0  400000 750000 0  450000 750000 0  500000 750000 0  550000 750000 0  600000 750000 0  650000 750000 0  700000 750000 0  750000 750000 0  800000 750000 0  850000 750000 0  900000 750000 0  950000 750000 0  1000000 750000 0  0 800000 0  50000 800000 0  100000 800000 0  150000 800000 0  200000 800000 0  250000 800000 0  300000 800000 0  350000 800000 0  400000 800000 0  450000 800000 0  500000 800000 0  550000 800000 0  600000 800000 0  650000 800000 0  700000 800000 0  750000 800000 0  800000 800000 0  850000 800000 0  900000 800000 0  950000 800000 0  1000000 800000 0  0 850000 0  50000 850000 0  100000 850000 0  150000 850000 0  200000 850000 0  250000 850000 0  300000 850000 0  350000 850000 0  400000 850000 0  450000 850000 0  500000 850000 0  550000 850000 0  600000 850000 0  650000 850000 0  700000 850000 0  750000 850000 0  800000 850000 0  850000 850000 0  900000 850000 0  950000 850000 0  1000000 850000 0  0 900000 0  50000 900000 0  100000 900000 0  150000 900000 0  200000 900000 0  250000 900000 0  300000 900000 0  350000 900000 0  400000 900000 0  450000 900000 0  500000 900000 0  550000 900000 0  600000 900000 0  650000 900000 0  700000 900000 0  750000 900000 0  800000 900000 0  850000 900000 0  900000 900000 0  950000 900000 0  1000000 900000 0  0 950000 0  50000 950000 0  100000 950000 0  150000 950000 0  200000 950000 0  250000 950000 0  300000 950000 0  350000 950000 0  400000 950000 0  450000 950000 0  500000 950000 0  550000 950000 0  600000 950000 0  650000 950000 0  700000 950000 0  750000 950000 0  800000 950000 0  850000 950000 0  900000 950000 0  950000 950000 0  1000000 950000 0  0 1000000 0  50000 1000000 0  100000 1000000 0  150000 1000000 0  200000 1000000 0  250000 1000000 0  300000 1000000 0  350000 1000000 0  400000 1000000 0  450000 1000000 0  500000 1000000 0  550000 1000000 0  600000 1000000 0  650000 1000000 0  700000 1000000 0  750000 1000000 0  800000 1000000 0  850000 1000000 0  900000 1000000 0  950000 1000000 0  1000000 1000000 0  0 1050000 0  50000 1050000 0  100000 1050000 0  150000 1050000 0  200000 1050000 0  250000 1050000 0  300000 1050000 0  350000 1050000 0  400000 1050000 0  450000 1050000 0  500000 1050000 0  550000 1050000 0  600000 1050000 0  650000 1050000 0  700000 1050000 0  750000 1050000 0  800000 1050000 0  850000 1050000 0  900000 1050000 0  950000 1050000 0  1000000 1050000 0  0 1100000 0  50000 1100000 0  100000 1100000 0  150000 1100000 0  200000 1100000 0  250000 1100000 0  300000 1100000 0  350000 1100000 0  400000 1100000 0  450000 1100000 0  500000 1100000 0  550000 1100000 0  600000 1100000 0  650000 1100000 0  700000 1100000 0  750000 1100000 0  800000 1100000 0  850000 1100000 0  900000 1100000 0  950000 1100000 0  1000000 1100000 0  0 1150000 0  50000 1150000 0  100000 1150000 0  150000 1150000 0  200000 1150000 0  250000 1150000 0  300000 1150000 0  350000 1150000 0  400000 1150000 0  450000 1150000 0  500000 1150000 0  550000 1150000 0  600000 1150000 0  650000 1150000 0  700000 1150000 0  750000 1150000 0  800000 1150000 0  850000 1150000 0  900000 1150000 0  950000 1150000 0  1000000 1150000 0  0 1200000 0  50000 1200000 0  100000 1200000 0  150000 1200000 0  200000 1200000 0  250000 1200000 0  300000 1200000 0  350000 1200000 0  400000 1200000 0  450000 1200000 0  500000 1200000 0  550000 1200000 0  600000 1200000 0  650000 1200000 0  700000 1200000 0  750000 1200000 0  800000 1200000 0  850000 1200000 0  900000 1200000 0  950000 1200000 0  1000000 1200000 0  0 1250000 0  50000 1250000 0  100000 1250000 0  150000 1250000 0  200000 1250000 0  250000 1250000 0  300000 1250000 0  350000 1250000 0  400000 1250000 0  450000 1250000 0  500000 1250000 0  550000 1250000 0  600000 1250000 0  650000 1250000 0  700000 1250000 0  750000 1250000 0  800000 1250000 0  850000 1250000 0  900000 1250000 0  950000 1250000 0  1000000 1250000 0  0 1300000 0  50000 1300000 0  100000 1300000 0  150000 1300000 0  200000 1300000 0  250000 1300000 0  300000 1300000 0  350000 1300000 0  400000 1300000 0  450000 1300000 0  500000 1300000 0  550000 1300000 0  600000 1300000 0  650000 1300000 0  700000 1300000 0  750000 1300000 0  800000 1300000 0  850000 1300000 0  900000 1300000 0  950000 1300000 0  1000000 1300000 0  0 1350000 0  50000 1350000 0  100000 1350000 0  150000 1350000 0  200000 1350000 0  250000 1350000 0  300000 1350000 0  350000 1350000 0  400000 1350000 0  450000 1350000 0  500000 1350000 0  550000 1350000 0  600000 1350000 0  650000 1350000 0  700000 135
[...]
<PointData  Vectors="f_1505"> 
<DataArray  type="Float64"  Name="f_1505"  NumberOfComponents="3" format="ascii">-7.8202849322717364e-11 8.3653260337087937e-11 0.0000000000000000e+00  -1.4637148550450462e-10 7.0259898367881731e-11 0.0000000000000000e+00  -2.6760372702327570e-10 6.4356124483533955e-11 0.0000000000000000e+00  -3.8473954109755439e-10 5.9099056062484531e-11 0.0000000000000000e+00  -4.9197275336647336e-10 5.3047065623125397e-11 0.0000000000000000e+00  -5.8617061608343321e-10 4.6048363134316881e-11 0.0000000000000000e+00  -6.6478975113986136e-10 3.8171789989437319e-11 0.0000000000000000e+00  -7.2577398018331958e-10 2.9563488448254088e-11 0.0000000000000000e+00  -7.6755136718682047e-10 2.0412231053793205e-11 0.0000000000000000e+00  -7.8906179721880652e-10 1.0931805189264801e-11 0.0000000000000000e+00  -7.8977970403810275e-10 1.3498035911429969e-12 0.0000000000000000e+00  -7.6972496375487356e-10 -8.1009385476595365e-12 0.0000000000000000e+00  -7.2946066123633519e-10 -1.7189893512011035e-11 0.0000000000000000e+00  -6.7007772236136842e-10 -2.5696212220118425e-11 0.0000000000000000e+00  -5.9316908614711772e-10 -3.3416970653884260e-11 0.0000000000000000e+00  -5.0080992558734603e-10 -4.0179770493019556e-11 0.0000000000000000e+00  -3.9563062022435318e-10 -4.5872567038934307e-11 0.0000000000000000e+00  -2.8138048233085205e-10 -5.0526517189734131e-11 0.0000000000000000e+00  -1.6560287018658671e-10 -5.4234057756539323e-11 0.0000000000000000e+00  -7.1016809857452674e-11 -5.2511110417832808e-11 0.0000000000000000e+00  -3.1167489147133878e-11 -3.1673553538267002e-11 0.0000000000000000e+00  -6.6384036667986626e-11 1.4657347458816553e-10 0.0000000000000000e+00  -1.2473804756367007e-10 1.2532759371743825e-10 0.0000000000000000e+00  -2.2282331220673300e-10 1.2622208335798865e-10 0.0000000000000000e+00  -3.2804575820717981e-10 1.2028937319296673e-10 0.0000000000000000e+00  -4.2816356199780019e-10 1.0966732730509966e-10 0.0000000000000000e+00  -5.1848062969916399e-10 9.5626633447930152e-11 0.0000000000000000e+00  -5.9592094128982076e-10 7.8880816051783144e-11 0.0000000000000000e+00  -6.5816080336319744e-10 6.0008801422298755e-11 0.0000000000000000e+00  -7.0344135054261282e-10 3.9570846580117230e-11 0.0000000000000000e+00  -7.3052484589217824e-10 1.8136125459768595e-11 0.0000000000000000e+00  -7.3869321829987101e-10 -3.7148974480180575e-12 0.0000000000000000e+00  -7.2775197859689801e-10 -2.5397139394981234e-11 0.0000000000000000e+00  -6.9802969471666521e-10 -4.6330639034989789e-11 0.0000000000000000e+00  -6.5037121085634670e-10 -6.5950261281274422e-11 0.0000000000000000e+00  -5.8612733406800882e-10 -8.3712451908417194e-11 0.0000000000000000e+00  -5.0715345839985111e-10 -9.9093587198798876e-11 0.0000000000000000e+00  -4.1586287969195035e-10 -1.1156320755023114e-10 0.0000000000000000e+00  -3.1551155062399596e-10 -1.2045456028666012e-10 0.0000000000000000e+00  -2.1145308802902435e-10 -1.2425545974549241e-10 0.0000000000000000e+00  -1.1663882543825328e-10 -1.1707421666243203e-10 0.0000000000000000e+00  -5.3910960355259484e-11 -6.8668589197105637e-11 0.0000000000000000e+00  -6.5436964772507814e-11 2.5813631969631961e-10 0.0000000000000000e+00  -1.2763680631619285e-10 2.1903181131936175e-10 0.0000000000000000e+00  -2.2206073817790508e-10 2.1683840630231388e-10 0.0000000000000000e+00  -3.2005782344330400e-10 2.0721144030835854e-10 0.0000000000000000e+00  -4.1283129575230866e-10 1.8979240147234069e-10 0.0000000000000000e+00  -4.9654992123932559e-10 1.6609473972465304e-10 0.0000000000000000e+00  -5.6843337802011946e-10 1.3738707721203448e-10 0.0000000000000000e+00  -6.2627893689007910e-10 1.0475360511541631e-10 0.0000000000000000e+00  -6.6839064087613602e-10 6.9228998630877463e-11 0.0000000000000000e+00  -6.9357209536089874e-10 3.1848154189333143e-11 0.0000000000000000e+00  -7.0112772251930182e-10 -6.3433346806635369e-12 0.0000000000000000e+00  -6.9086508580605394e-10 -4.4295328400170596e-11 0.0000000000000000e+00  -6.6309415517059228e-10 -8.0965607912474756e-11 0.0000000000000000e+00  -6.1862229067446016e-10 -1.1533216508187449e-10 0.0000000000000000e+00  -5.5874727268750112e-10 -1.4639863872535417e-10 0.0000000000000000e+00  -4.8525777537726286e-10 -1.7318128497874526e-10 0.0000000000000000e+00  -4.0047331935814064e-10 -1.9465061554176114e-10 0.0000000000000000e+00  -3.0744322985319782e-10 -2.0955866786363341e-10 0.0000000000000000e+00  -2.1075475999004729e-10 -2.1596074408784403e-10 0.0000000000000000e+00  -1.2048144238009968e-10 -2.1054954229321761e-10 0.0000000000000000e+00  -5.7703650734625137e-11 -1.5539792458737624e-10 0.0000000000000000e+00  -6.8167031002029030e-11 3.6796790312369169e-10 0.0000000000000000e+00  -1.2656296749650018e-10 3.2494669227490808e-10 0.0000000000000000e+00  -2.1914270084868668e-10 3.1572113109046645e-10 0.0000000000000000e+00  -3.1468924712533566e-10 2.9971017035981284e-10 0.0000000000000000e+00  -4.0412544033568316e-10 2.7430521058288075e-10 0.0000000000000000e+00  -4.8420860500328196e-10 2.4034980528585223e-10 0.0000000000000000e+00  -5.5268514279475217e-10 1.9922859673464850e-10 0.0000000000000000e+00  -6.0764695780047378e-10 1.5238836373553373e-10 0.0000000000000000e+00  -6.4755917951270103e-10 1.0129807550035126e-10 0.0000000000000000e+00  -6.7131525742685400e-10 4.7454499187062618e-11 0.0000000000000000e+00  -6.7826836104121257e-10 -7.6219083208251137e-12 0.0000000000000000e+00  -6.6824569933123597e-10 -6.2401215030974886e-11 0.0000000000000000e+00  -6.4155180551641165e-10 -1.1536296538744743e-10 0.0000000000000000e+00  -5.9896344604982435e-10 -1.6501450511506089e-10 0.0000000000000000e+00  -5.4171752523947882e-10 -2.0990278109780267e-10 0.0000000000000000e+00  -4.7149517412767899e-10 -2.4861200663677301e-10 0.0000000000000000e+00  -3.9041824778166878e-10 -2.7973870966335786e-10 0.0000000000000000e+00  -3.0114499314395397e-10 -3.0184788307828954e-10 0.0000000000000000e+00  -2.0750298517901180e-10 -3.1343896270271042e-10 0.0000000000000000e+00  -1.1880839245443649e-10 -3.1297487971352665e-10 0.0000000000000000e+00  -5.8624298165557059e-11 -2.6090317618202949e-10 0.0000000000000000e+00  -7.2877428564817663e-11 4.7547027177167868e-10 0.0000000000000000e+00  -1.2644207808849910e-10 4.3082423675808297e-10 0.0000000000000000e+00  -2.1746667650093719e-10 4.1571271539272814e-10 0.0000000000000000e+00  -3.1204503359275364e-10 3.9244791774264459e-10 0.0000000000000000e+00  -4.0031984238025427e-10 3.5831610008946181e-10 0.0000000000000000e+00  -4.7893142875671929e-10 3.1380652501021041e-10 0.0000000000000000e+00  -5.4581949882011508e-10 2.6027829528713182e-10 0.0000000000000000e+00  -5.9929857041234419e-10 1.9940641633729862e-10 0.0000000000000000e+00  -6.3799346526893722e-10 1.3301646961472948e-10 0.0000000000000000e+00  -6.6089909871119583e-10 6.3023252328215259e-11 0.0000000000000000e+00  -6.6742761628138845e-10 -8.6053681692801049e-12 0.0000000000000000e+00  -6.5743296199922960e-10 -7.9880213033913255e-11 0.0000000000000000e+00  -6.3121854709572624e-10 -1.4882208382950187e-10 0.0000000000000000e+00  -5.8953151906087236e-10 -2.1349183955415635e-10 0.0000000000000000e+00  -5.3354441847131806e-10 -2.7201765532150102e-10 0.0000000000000000e+00  -4.6482547059750127e-10 -3.2261970135546952e-10 0.0000000000000000e+00  -3.8531490344501245e-10 -3.6364063339000898e-10 0.0000000000000000e+00  -2.9742063478642866e-10 -3.9361243738163319e-10 0.0000000000000000e+00  -2.0480753211668374e-10 -4.1136324251693945e-10 0.0000000000000000e+00  -1.1741599960763283e-10 -4.1587863288321119e-10 0.0000000000000000e+00  -6.1463120860812088e-11 -3.6746015596525444e-10 0.0000000000000000e+00  -7.9230360002787943e-11 5.8197359462691207e-10 0.0000000000000000e+00  -1.2784886457603650e-10 5.3585181784695837e-10 0.0000000000000000e+00  -2.1788704648553131e-10 5.1588593541219263e-10 0.0000000000000000e+00  -3.1242281077846970e-10 4.8537657841075288e-10 0.0000000000000000e+00  -4.0076993470648615e-10 4.4217538267174138e-10 0.0000000000000000e+00  -4.7927825075659479e-10 3.8682727628338577e-10 0.0000000000000000e+00  -5.4586191379361039e-10 3.2077047157279263e-10 0.0000000000000000e+00  -5.9891957953344555e-10 2.4588823204434730e-10 0.0000000000000000e+00  -6.3717541869080898e-10 1.6432027523493487e-10 0.0000000000000000e+00  -6.5970385456902610e-10 7.8362018804000210e-11 0.0000000000000000e+00  -6.6596966546047582e-10 -9.6014094273008849e-12 0.0000000000000000e+00  -6.5585331818376074e-10 -9.7147547634402314e-11 0.0000000000000000e+00  -6.2965981387225977e-10 -1.8186378325697133e-10 0.0000000000000000e+00  -5.8811264669050472e-10 -2.6139287763500256e-10 0.0000000000000000e+00  -5.3233355536742637e-10 -3.3347945537922630e-10 0.0000000000000000e+00  -4.6381174197655869e-10 -3.9602251276330138e-10 0.0000000000000000e+00  -3.8439094058686743e-10 -4.4714577564023712e-10 0.0000000000000000e+00  -2.9642411192318200e-10 -4.8530572452663755e-10 0.0000000000000000e+00  -2.0376343565851495e-10 -5.0937989698518973e-10 0.0000000000000000e+00  -1.1730588613573054e-10 -5.1835861567062085e-10 0.0000000000000000e+00  -6.5982138224751714e-11 -4.7244972409951420e-10 0.0000000000000000e+00  -8.7110243246127696e-11 6.8867961920205940e-10 0.0000000000000000e+00  -1.3069513603381745e-10 6.4098055082800641e-10 0.0000000000000000e+00  -2.2034448711355670e-10 6.1661782861601882e-10 0.0000000000000000e+00  -3.1555329802580456e-10 5.7907233174815977e-10 0.0000000000000000e+00  -4.0476073386798376e-10 5.2667253278580131e-10 0.0000000000000000e+00  -4.8401092079288057e-10 4.6024566075649275e-10 0.0000000000000000e+00  -5.5111045784030448e-10 3.8144345588380719e-10 0.0000000000000000e+00  -6.0445361802572214e-10 2.9240116311381150e-10 0.0000000000000000e+00  -6.4280419474311117e-10 1.9557257631029307e-10 0.0000000000000000e+00  -6.6528406602699996e-10 9.3617666970186394e-11 0.0000000000000000e+00  -6.7139610612895161e-10 -1.0681727552544969e-11 0.0000000000000000e+00  -6.6104264538848891e-10 -1.1449121908402146e-10 0.0000000000000000e+00  -6.3453226396342786e-10 -2.1498614250179682e-10 0.0000000000000000e+00  -5.9257420384884166e-10 -3.0941221282511068e-10 0.0000000000000000e+00  -5.3626118997330698e-10 -3.9514939199171965e-10 0.0000000000000000e+00  -4.6704757581584204e-10 -4.6978490581150248e-10 0.0000000000000000e+00  -3.8676098851320161e-10 -5.3120334973496866e-10 0.0000000000000000e+00  -2.9782186159651816e-10 -5.7769829942495909e-10 0.0000000000000000e+00  -2.0440069897451943e-10 -6.0801903856533464e-10 0.0000000000000000e+00  -1.1844587303357511e-10 -6.2099459695414300e-10 0.0000000000000000e+00  -7.1955350615838635e-11 -5.7647255953923941e-10 0.0000000000000000e+00  -9.6472383028023060e-11 7.9648648196380116e-10 0.0000000000000000e+00  -1.3470667716180150e-10 7.4709644928426506e-10 0.0000000000000000e+00  -2.2438242842034332e-10 7.1854055240511661e-10 0.0000000000000000e+00  -3.2076041394651324e-10 6.7408018546710539e-10 0.0000000000000000e+00  -4.1130866451049514e-10 6.1240122205276339e-10 0.0000000000000000e+00  -4.9177291923757939e-10 5.3467768515784631e-10 0.0000000000000000e+00  -5.5983775350395869e-10 4.4286514545239689e-10 0.0000000000000000e+00  -6.1385728496606087e-10 3.3940704507609740e-10 0.0000000000000000e+00  -6.5260044951235618e-10 2.2709332213757736e-10 0.0000000000000000e+00  -6.7521322179151486e-10 1.0894965018971488e-10 0.0000000000000000e+00  -6.8122378185189954e-10 -1.1855087984705975e-11 0.0000000000000000e+00  -6.7055114288206335e-10 -1.3208882174937791e-10 0.0000000000000000e+00  -6.4350829148557349e-10 -2.4852956724029321e-10 0.0000000000000000e+00  -6.0079797130008493e-10 -3.5803763336699177e-10 0.0000000000000000e+00  -5.4350192895712289e-10 -4.5763217491451085e-10 0.0000000000000000e+00  -4.7307241241221654e-10 -5.4457709386385965e-10 0.0000000000000000e+00  -3.9136977239840359e-10 -6.1647970840262581e-10 0.0000000000000000e+00  -3.0093757279629691e-10 -6.7139773123623621e-10 0.0000000000000000e+00  -2.0630897757205170e-10 -7.0786190158716041e-10 0.0000000000000000e+00  -1.2056846886854897e-10 -7.2449551308041004e-10 0.0000000000000000e+00  -7.9291876373997205e-11 -6.8053586015417455e-10 0.0000000000000000e+00  -1.0730870043052752e-10 9.0590910063574977e-10 0.0000000000000000e+00  -1.3952963124171376e-10 8.5478894178055583e-10 0.0000000000000000e+00  -2.2934309980381368e-10 8.2211107076998705e-10 0.0000000000000000e+00  -3.2709762011697588e-10 7.7074692691529711e-10 0.0000000000000000e+00  -4.1916045730591913e-10 6.9967566446009614e-10 0.0000000000000000e+00  -5.0098104179079654e-10 6.1042962031798787e-10 0.0000000000000000e+00  -5.7013329421535846e-10 5.0531922582233140e-10 0.0000000000000000e+00  -6.2493037508896725e-10 3.8714216472214222e-10 0.0000000000000000e+00  -6.6413914356652119e-10 2.5905145075919474e-10 0.0000000000000000e+00  -6.8692266435787626e-10 1.2444730088871007e-10 0.0000000000000000e+00  -6.9282968988040813e-10 -1.3117907778479365e-11 0.0000000000000000e+00  -6.8179309972116273e-10 -1.5002420461123181e-10 0.0000000000000000e+00  -6.5412917549907905e-10 -2.8266258651368073e-10 0.0000000000000000e+00  -6.1053584116082497e-10 -4.0751338491901995e-10 0.0000000000000000e+00  -5.5209047173812642e-10 -5.2123015960159358e-10 0.0000000000000000e+00  -4.8025633017711792e-10 -6.2073331545108596e-10 0.0000000000000000e+00  -3.9694440997749079e-10 -7.0331419959805869e-10 0.0000000000000000e+00  -3.0483810470617675e-10 -7.6674199022368675e-10 0.0000000000000000e+00  -2.0885232203487002e-10 -8.0928299506278820e-10 0.0000000000000000e+00  -1.2331368941633581e-10 -8.2934691079429204e-10 0.0000000000000000e+00  -8.7957309708406437e-11 -7.8540865806621645e-10 0.0000000000000000e+00  -1.1963177240840093e-10 1.0170276251498856e-09 0.0000000000000000e+00  -1.4475032506961564e-10 9.6427216795388993e-10 0.0000000000000000e+00  -2.3442254306199510e-10 9.2746109150136954e-10 0.0000000000000000e+00  -3.3339297452407046e-10 8.6911849849244082e-10 0.0000000000000000e+00  -4.2678710541466953e-10 7.8849282358479717e-10 0.0000000000000000e+00  -5.0975494276918532e-10 6.8748338541183852e-10 0.0000000000000000e+00  -5.7978333660390197e-10 5.6878821942282955e-10 0.0000000000000000e+00  -6.3516667346668742e-10 4.3559417786252358e-10 0.0000000000000000e+00  -6.7468599204419811e-10 2.9144061166482812e-10 0.0000000000000000e+00  -6.9753243351255861e-10 1.4011037238263452e-10 0.0000000000000000e+00  -7.0328137113368575e-10 -1.4464968720970481e-11 0.0000000000000000e+00  -6.9188042935350877e-10 -1.6828857250269324e-10 0.0000000000000000e+00  -6.6364518374041841e-10 -3.1737555704384686e-10 0.0000000000000000e+00  -6.1926129271782365e-10 -4.5783107045966822e-10 0.0000000000000000e+00  -5.5979312037138769e-10 -5.8593614956032678e-10 0.0000000000000000e+00  -4.8670698840272602e-10 -6.9824593961470718e-10 0.0000000000000000e+00  -4.0195756188862008e-10 -7.9170034476614896e-10 0.0000000000000000e+00  -3.0836274041030191e-10 -8.6373900651128873e-10 0.0000000000000000e+00  -2.1123178190414976e-10 -9.1233424690746534e-10 0.0000000000000000e+00  -1.2625437783348512e-10 -9.3568134751619938e-10 0.0000000000000000e+00  -9.7945132638850266e-11 -8.9147135093714253e-10 0.0000000000000000e+00  -1.3346599121816408e-10 1.1294256258430283e-09 0.0000000000000000e+00  -1.4988732680491020e-10 1.0753136007734809e-09 0.0000000000000000e+00  -2.3866641213992415e-10 1.0343063726450038e-09 0.0000000000000000e+00  -3.3823773514597427e-10 9.6885089382851329e-10 0.0000000000000000e+00  -4.3234575391687039e-10 8.7847304670191262e-10 0.0000000000000000e+00  -5.1583949696763052e-10 7.6545980147868574e-10 0.0000000000000000e+00  -5.8615377667663601e-10 6.3292751632935162e-10 0.0000000000000000e+00  -6.4160585605728361e-10 4.8448115180803486e-10 0.0000000000000000e+00  -6.8102890017184640e-10 3.2406329066171765e-10 0.0000000000000000e+00  -7.0367159144657714e-10 1.5584055570727106e-10 0.0000000000000000e+00  -7.0915393921046412e-10 -1.5888650834060515e-11 0.0000000000000000e+00  -6.9744322876624403e-10 -1.8677032189940541e-10 0.0000000000000000e+00  -6.6884623388267989e-10 -3.5246280254643949e-10 0.0000000000000000e+00  -6.2401728036525645e-10 -5.0870676944078514e-10 0.0000000000000000e+00  -5.6398126155448121e-10 -6.5140713593523406e-10 0.0000000000000000e+00  -4.9017788799968792e-10 -7.7673352843549548e-10 0.0000000000000000e+00  -4.0457679342338466e-10 -8.8124030109985940e-10 0.0000000000000000e+00  -3.1010914789527219e-10 -9.6199857129019974e-10 0.0000000000000000e+00  -2.1248745335005715e-10 -1.0166575923711824e-09 0.0000000000000000e+00  -1.2889140765886029e-10 -1.0431941455579643e-09 0.0000000000000000e+00  -1.0926592530499981e-10 -9.9865200063258046e-10 0.0000000000000000e+00  -1.4884239908912666e-10 1.2421080955349783e-09 0.0000000000000000e+00  -1.5437339560237043e-10 1.1871527429234763e-09 0.0000000000000000e+00  -2.4093984002711318e-10 1.1418551908480544e-09 0.0000000000000000e+00  -3.3994147392459280e-10 1.0691153759406918e-09 0.0000000000000000e+00  -4.3361164282641120e-10 9.6877567837288386e-10 0.0000000000000000e+00  -5.1650570555335499e-10 8.4354986933978206e-10 0.0000000000000000e+00  -5.8605759860195672e-10 6.9701101474354995e-10 0.0000000000000000e+00  -6.4067115762508910e-10 5.3321027556872405e-10 0.0000000000000000e+00  -6.7929329255824052e-10 3.5650318651179895e-10 0.0000000000000000e+00  -7.0128010249993597e-10 1.7142906951722947e-10 0.0000000000000000e+00  -7.0632758444824693e-10 -1.7375062302094443e-11 0.0000000000000000e+00  -6.9443169393612243e-10 -2.0523521307660835e-10 0.0000000000000000e+00  -6.6587660386272866e-10 -3.8748864679789111e-10 0.0000000000000000e+00  -6.2125164095161015e-10 -5.5953554963580783e-10 0.0000000000000000e+00  -5.6149452154623369e-10 -7.1690938447134598e-10 0.0000000000000000e+00  -4.8796431634213294e-10 -8.5537676037572801e-10 0.0000000000000000e+00  -4.0259408262742458e-10 -9.7107013401400869e-10 0.0000000000000000e+00  -3.0839071806074015e-10 -1.0606466848342442e-09 0.0000000000000000e+00  -2.1147289756882774e-10 -1.1213938717951811e-09 0.0000000000000000e+00  -1.3063724963393706e-10 -1.1510579821395714e-09 0.0000000000000000e+00  -1.2194192001852387e-10 -1.1063608142636996e-09 0.0000000000000000e+00  -1.6579619924673161e-10 1.3533949284185908e-09 0.0000000000000000e+00  -1.5753246614541203e-10 1.2984007207577250e-09 0.0000000000000000e+00  -2.3988346178345544e-10 1.2487001922066911e-09 0.0000000000000000e+00  -3.3646531279337727e-10 1.1684854629212810e-09 0.0000000000000000e+00  -4.2788434250542153e-10 1.0579887243434370e-09 0.0000000000000000e+00  -5.0842548511636417e-10 9.2041453025178669e-10 0.0000000000000000e+00  -5.7559671613631683e-10 7.5984577121897253e-10 0.0000000000000000e+00  -6.2798106849060274e-10 5.8081098441777975e-10 0.0000000000000000e+00  -6.6473022148592160e-10 3.8808004792670274e-10 0.0000000000000000e+00  -6.8538228831722040e-10 1.8653583677574454e-10 0.0000000000000000e+00  -6.8975640301700417e-10 -1.8899236654569195e-11 0.0000000000000000e+00  -6.7789050354023250e-10 -2.2329652523582973e-10 0.0000000000000000e+00  -6.5002450184448702e-10 -4.2173500346151733e-10 0.0000000000000000e+00  -6.0663026155581323e-10 -6.0932032161723767e-10 0.0000000000000000e+00  -5.4848390198994670e-10 -7.8123280345849049e-10 0.0000000000000000e+00  -4.7677974975037034e-10 -9.3282210107863063e-10 0.0000000000000000e+00  -3.9333478037575576e-10 -1.0597559643459541e-09 0.0000000000000000e+00  -3.0117348119839606e-10 -1.1582176206357689e-09 0.0000000000000000e+00  -2.0681393578515246e-10 -1.2250754830904785e-09 0.0000000000000000e+00  -1.3079311743967349e-10 -1.2578211470146260e-09 0.0000000000000000e+00  -1.3600365932952864e-10 -1.2134045559129928e-09 0.0000000000000000e+00  -1.8436719964487861e-10 1.4607860219469159e-09 0.0000000000000000e+00  -1.5855309984010781e-10 1.4069146449650776e-09 0.0000000000000000e+00  -2.3385928833831548e-10 1.3526853841670420e-09 0.0000000000000000e+00  -3.2533744635556526e-10 1.2647971441964642e-09 0.0000000000000000e+00  -4.1186951790831880e-10 1.1439878683291391e-09 0.0000000000000000e+00  -4.87516