<?xml version="1.0"?>
<VTKFile type="UnstructuredGrid"  version="0.1"  >
<UnstructuredGrid>
<Piece  NumberOfPoints="651" NumberOfCells="1200">
<Points>
<DataArray  type="Float64"  NumberOfComponents="3"  format="ascii">0 0 0  50000 0 0  100000 0 0  150000 0 0  200000 0 0  250000 0 0  300000 0 0  350000 0 0  400000 0 0  450000 0 0  500000 0 0  550000 0 0  600000 0 0  650000 0 0  700000 0 0  750000 0 0  800000 0 0  850000 0 0  900000 0 0  950000 0 0  1000000 0 0  0 50000 0  50000 50000 0  100000 50000 0  150000 50000 0  200000 50000 0  250000 50000 0  300000 50000 0  350000 50000 0  400000 50000 0  450000 50000 0  500000 50000 0  550000 50000 0  600000 50000 0  650000 50000 0  700000 50000 0  750000 50000 0  800000 50000 0  850000 50000 0  900000 50000 0  950000 50000 0  1000000 50000 0  0 100000 0  50000 100000 0  100000 100000 0  150000 100000 0  200000 100000 0  250000 100000 0  300000 100000 0  350000 100000 0  400000 100000 0  450000 100000 0  500000 100000 0  550000 100000 0  600000 100000 0  650000 100000 0  700000 100000 0  750000 100000 0  800000 100000 0  850000 100000 0  900000 100000 0  950000 100000 0  1000000 100000 0  0 150000 0  50000 150000 0  100000 150000 0  150000 150000 0  200000 150000 0  250000 150000 0  300000 150000 0  350000 150000 0  400000 150000 0  450000 150000 0  500000 150000 0  550000 150000 0  600000 150000 0  650000 150000 0  700000 150000 0  750000 150000 0  800000 150000 0  850000 150000 0  900000 150000 0  950000 150000 0  1000000 150000 0  0 200000 0  50000 200000 0  100000 200000 0  150000 200000 0  200000 200000 0  250000 200000 0  300000 200000 0  350000 200000 0  400000 200000 0  450000 200000 0  500000 200000 0  550000 200000 0  600000 200000 0  650000 200000 0  700000 200000 0  750000 200000 0  800000 200000 0  850000 200000 0  900000 200000 0  950000 200000 0  1000000 200000 0  0 250000 0  50000 250000 0  100000 250000 0  150000 250000 0  200000 250000 0  250000 250000 0  300000 250000 0  350000 250000 0  400000 250000 0  450000 250000 0  500000 250000 0  550000 250000 0  600000 250000 0  650000 250000 0  700000 250000 0  750000 250000 0  800000 250000 0  850000 250000 0  900000 250000 0  950000 250000 0  1000000 250000 0  0 300000 0  50000 300000 0  100000 300000 0  150000 300000 0  200000 300000 0  250000 300000 0  300000 300000 0  350000 300000 0  400000 300000 0  450000 300000 0  500000 300000 0  550000 300000 0  600000 300000 0  650000 300000 0  700000 300000 0  750000 300000 0  800000 300000 0  850000 300000 0  900000 300000 0  950000 300000 0  1000000 300000 0  0 350000 0  50000 350000 0  100000 350000 0  150000 350000 0  200000 350000 0  250000 350000 0  300000 350000 0  350000 350000 0  400000 350000 0  450000 350000 0  500000 350000 0  550000 350000 0  600000 350000 0  650000 350000 0  700000 350000 0  750000 350000 0  800000 350000 0  850000 350000 0  900000 350000 0  950000 350000 0  1000000 350000 0  0 400000 0  50000 400000 0  100000 400000 0  150000 400000 0  200000 400000 0  250000 400000 0  300000 400000 0  350000 400000 0  400000 400000 0  450000 400000 0  500000 400000 0  550000 400000 0  600000 400000 0  650000 400000 0  700000 400000 0  750000 400000 0  800000 400000 0  850000 400000 0  900000 400000 0  950000 400000 0  1000000 400000 0  0 450000 0  50000 450000 0  100000 450000 0  150000 450000 0  200000 450000 0  250000 450000 0  300000 450000 0  350000 450000 0  400000 450000 0  450000 450000 0  500000 450000 0  550000 450000 0  600000 450000 0  650000 450000 0  700000 450000 0  750000 450000 0  800000 450000 0  850000 450000 0  900000 450000 0  950000 450000 0  1000000 450000 0  0 500000 0  50000 500000 0  100000 500000 0  150000 500000 0  200000 500000 0  250000 500000 0  300000 500000 0  350000 500000 0  400000 500000 0  450000 500000 0  500000 500000 0  550000 500000 0  600000 500000 0  650000 500000 0  700000 500000 0  750000 500000 0  800000 500000 0  850000 500000 0  900000 500000 0  950000 500000 0  1000000 500000 0  0 550000 0  50000 550000 0  100000 550000 0  150000 550000 0  200000 550000 0  250000 550000 0  300000 550000 0  350000 550000 0  400000 550000 0  450000 550000 0  500000 550000 0  550000 550000 0  600000 550000 0  650000 550000 0  700000 550000 0  750000 550000 0  800000 550000 0  850000 550000 0  900000 550000 0  950000 550000 0  1000000 550000 0  0 600000 0  50000 600000 0  100000 600000 0  150000 600000 0  200000 600000 0  250000 600000 0  300000 600000 0  350000 600000 0  400000 600000 0  450000 600000 0  500000 600000 0  550000 600000 0  600000 600000 0  650000 600000 0  700000 600000 0  750000 600000 0  800000 600000 0  850000 600000 0  900000 600000 0  950000 600000 0  1000000 600000 0  0 650000 0  50000 650000 0  100000 650000 0  150000 650000 0  200000 650000 0  250000 650000 0  300000 650000 0  350000 650000 0  400000 650000 0  450000 650000 0  500000 650000 0  550000 650000 0  600000 650000 0  650000 650000 0  700000 650000 0  750000 650000 0  800000 650000 0  850000 650000 0  900000 650000 0  950000 650000 0  1000000 650000 0  0 700000 0  50000 700000 0  100000 700000 0  150000 700000 0  200000 700000 0  250000 700000 0  300000 700000 0  350000 700000 0  400000 700000 0  450000 700000 0  500000 700000 0  550000 700000 0  600000 700000 0  650000 700000 0  700000 700000 0  750000 700000 0  800000 700000 0  850000 700000 0  900000 700000 0  950000 700000 0  1000000 700000 0  0 750000 0  50000 750000 0  100000 750000 0  150000 750000 0  200000 750000 0  250000 750000 0  300000 750000 0  350000 750000 0  400000 750000 0  450000 750000 0  500000 750000 0  550000 750000 0  600000 750000 0  650000 750000 0  700000 750000 0  750000 750000 0  800000 750000 0  850000 750000 0  900000 750000 0  950000 750000 0  1000000 750000 0  0 800000 0  50000 800000 0  100000 800000 0  150000 800000 0  200000 800000 0  250000 800000 0  300000 800000 0  350000 800000 0  400000 800000 0  450000 800000 0  500000 800000 0  550000 800000 0  600000 800000 0  650000 800000 0  700000 800000 0  750000 800000 0  800000 800000 0  850000 800000 0  900000 800000 0  950000 800000 0  1000000 800000 0  0 850000 0  50000 850000 0  100000 850000 0  150000 850000 0  200000 850000 0  250000 850000 0  300000 850000 0  350000 850000 0  400000 850000 0  450000 850000 0  500000 850000 0  550000 850000 0  600000 850000 0  650000 850000 0  700000 850000 0  750000 850000 0  800000 850000 0  850000 850000 0  900000 850000 0  950000 850000 0  1000000 850000 0  0 900000 0  50000 900000 0  100000 900000 0  150000 900000 0  200000 900000 0  250000 900000 0  300000 900000 0  350000 900000 0  400000 900000 0  450000 900000 0  500000 900000 0  550000 900000 0  600000 900000 0  650000 900000 0  700000 900000 0  750000 900000 0  800000 900000 0  850000 900000 0  900000 900000 0  950000 900000 0  1000000 900000 0  0 950000 0  50000 950000 0  100000 950000 0  150000 950000 0  200000 950000 0  250000 950000 0  300000 950000 0  350000 950000 0  400000 950000 0  450000 950000 0  500000 950000 0  550000 950000 0  600000 950000 0  650000 950000 0  700000 950000 0  750000 950000 0  800000 950000 0  850000 950000 0  900000 950000 0  950000 950000 0  1000000 950000 0  0 1000000 0  50000 1000000 0  100000 1000000 0  150000 1000000 0  200000 1000000 0  250000 1000000 0  300000 1000000 0  350000 1000000 0  400000 1000000 0  450000 1000000 0  500000 1000000 0  550000 1000000 0  600000 1000000 0  650000 1000000 0  700000 1000000 0  750000 1000000 0  800000 1000000 0  850000 1000000 0  900000 1000000 0  950000 1000000 0  1000000 1000000 0  0 1050000 0  50000 1050000 0  100000 1050000 0  150000 1050000 0  200000 1050000 0  250000 1050000 0  300000 1050000 0  350000 1050000 0  400000 1050000 0  450000 1050000 0  500000 1050000 0  550000 1050000 0  600000 1050000 0  650000 1050000 0  700000 1050000 0  750000 1050000 0  800000 1050000 0  850000 1050000 0  900000 1050000 0  950000 1050000 0  1000000 1050000 0  0 1100000 0  50000 1100000 0  100000 1100000 0  150000 1100000 0  200000 1100000 0  250000 1100000 0  300000 1100000 0  350000 1100000 0  400000 1100000 0  450000 1100000 0  500000 1100000 0  550000 1100000 0  600000 1100000 0  650000 1100000 0  700000 1100000 0  750000 1100000 0  800000 1100000 0  850000 1100000 0  900000 1100000 0  950000 1100000 0  1000000 1100000 0  0 1150000 0  50000 1150000 0  100000 1150000 0  150000 1150000 0  200000 1150000 0  250000 1150000 0  300000 1150000 0  350000 1150000 0  400000 1150000 0  450000 1150000 0  500000 1150000 0  550000 1150000 0  600000 1150000 0  650000 1150000 0  700000 1150000 0  750000 1150000 0  800000 1150000 0  850000 1150000 0  900000 1150000 0  950000 1150000 0  1000000 1150000 0  0 1200000 0  50000 1200000 0  100000 1200000 0  150000 1200000 0  200000 1200000 0  250000 1200000 0  300000 1200000 0  350000 1200000 0  400000 1200000 0  450000 1200000 0  500000 1200000 0  550000 1200000 0  600000 1200000 0  650000 1200000 0  700000 1200000 0  750000 1200000 0  800000 1200000 0  850000 1200000 0  900000 1200000 0  950000 1200000 0  1000000 1200000 0  0 1250000 0  50000 1250000 0  100000 1250000 0  150000 1250000 0  200000 1250000 0  250000 1250000 0  300000 1250000 0  350000 1250000 0  400000 1250000 0  450000 1250000 0  500000 1250000 0  550000 1250000 0  600000 1250000 0  650000 1250000 0  700000 1250000 0  750000 1250000 0  800000 1250000 0  850000 1250000 0  900000 1250000 0  950000 1250000 0  1000000 1250000 0  0 1300000 0  50000 1300000 0  100000 1300000 0  150000 1300000 0  200000 1300000 0  250000 1300000 0  300000 1300000 0  350000 1300000 0  400000 1300000 0  450000 1300000 0  500000 1300000 0  550000 1300000 0  600000 1300000 0  650000 1300000 0  700000 1300000 0  750000 1300000 0  800000 1300000 0  850000 1300000 0  900000 1300000 0  950000 1300000 0  1000000 1300000 0  0 1350000 0  50000 1350000 0  100000 1350000 0  150000 1350000 0  200000 1350000 0  250000 1350000 0  300000 1350000 0  350000 1350000 0  400000 1350000 0  450000 1350000 0  500000 1350000 0  550000 1350000 0  600000 1350000 0  650000 1350000 0  700000 135
[...]
<PointData  Vectors="f_1505"> 
<DataArray  type="Float64"  Name="f_1505"  NumberOfComponents="3" format="ascii">-8.1784423147792904e-11 7.0239014692303367e-11 0.0000000000000000e+00  -1.5031338032402366e-10 5.7312798932335088e-11 0.0000000000000000e+00  -2.7193108249670795e-10 5.2228892704835595e-11 0.0000000000000000e+00  -3.8937971204741404e-10 4.7762902101450704e-11 0.0000000000000000e+00  -4.9690101501285034e-10 4.2432959270226488e-11 0.0000000000000000e+00  -5.9136976748215766e-10 3.6108191216763359e-11 0.0000000000000000e+00  -6.7024482869719856e-10 2.8868695345217543e-11 0.0000000000000000e+00  -7.3147017643208002e-10 2.0865132953132903e-11 0.0000000000000000e+00  -7.7347363131490911e-10 1.2287823979865641e-11 0.0000000000000000e+00  -7.9519515042741343e-10 3.3503753182475036e-12 0.0000000000000000e+00  -7.9610987053369548e-10 -5.7210948299215519e-12 0.0000000000000000e+00  -7.7623922716264134e-10 -1.4696340045173731e-11 0.0000000000000000e+00  -7.3614896279054540e-10 -2.3348457926180131e-11 0.0000000000000000e+00  -6.7693406605886219e-10 -3.1461228487966275e-11 0.0000000000000000e+00  -6.0019335294749227e-10 -3.8837353002806025e-11 0.0000000000000000e+00  -5.0801025588389727e-10 -4.5311093627219439e-11 0.0000000000000000e+00  -4.0302670127856773e-10 -5.0778338515116621e-11 0.0000000000000000e+00  -2.8900794099435246e-10 -5.5280463628545019e-11 0.0000000000000000e+00  -1.7351039983594121e-10 -5.8923015807010993e-11 0.0000000000000000e+00  -7.9211758304225640e-11 -5.7210652535639039e-11 0.0000000000000000e+00  -3.9518093564353551e-11 -3.6543736434735378e-11 0.0000000000000000e+00  -6.9415844111516906e-11 1.3328877126384862e-10 0.0000000000000000e+00  -1.2398228975656898e-10 1.2131665286669742e-10 0.0000000000000000e+00  -2.1948850526153729e-10 1.2513434552250728e-10 0.0000000000000000e+00  -3.2623598863707025e-10 1.1897004024341581e-10 0.0000000000000000e+00  -4.2796186018791326e-10 1.0820902824514799e-10 0.0000000000000000e+00  -5.1939647251461177e-10 9.4112332773021040e-11 0.0000000000000000e+00  -5.9763893117781855e-10 7.7358893329525445e-11 0.0000000000000000e+00  -6.6047132426890728e-10 5.8506626739814123e-11 0.0000000000000000e+00  -7.0618692178067155e-10 3.8101615905458812e-11 0.0000000000000000e+00  -7.3358092062150828e-10 1.6704688228051749e-11 0.0000000000000000e+00  -7.4195734573010740e-10 -5.1087760533502221e-12 0.0000000000000000e+00  -7.3113618891192797e-10 -2.6757469002248483e-11 0.0000000000000000e+00  -7.0145459662758269e-10 -4.7665190255456112e-11 0.0000000000000000e+00  -6.5376036611661173e-10 -6.7271835196494477e-11 0.0000000000000000e+00  -5.8940026995136314e-10 -8.5042218477172809e-11 0.0000000000000000e+00  -5.1021494322536448e-10 -1.0046877612344442e-10 0.0000000000000000e+00  -4.1858599750125623e-10 -1.1305445875063000e-10 0.0000000000000000e+00  -3.1772821522084694e-10 -1.2219880347748535e-10 0.0000000000000000e+00  -2.1304944274381818e-10 -1.2650283356125443e-10 0.0000000000000000e+00  -1.1798127060343432e-10 -1.2063982188378634e-10 0.0000000000000000e+00  -6.2150662969759920e-11 -7.3284812497234335e-11 0.0000000000000000e+00  -6.7611970080649049e-11 2.4533756892181886e-10 0.0000000000000000e+00  -1.2655444461730403e-10 2.1647173759939484e-10 0.0000000000000000e+00  -2.1749783488091135e-10 2.1913165895446674e-10 0.0000000000000000e+00  -3.1526002022122164e-10 2.0953945311152951e-10 0.0000000000000000e+00  -4.0904272073312882e-10 1.9164608749889036e-10 0.0000000000000000e+00  -4.9399108395636663e-10 1.6749244112308136e-10 0.0000000000000000e+00  -5.6695685559229340e-10 1.3841002888444388e-10 0.0000000000000000e+00  -6.2568351085293703e-10 1.0547653620514250e-10 0.0000000000000000e+00  -6.6849116210524180e-10 6.9706884242892406e-11 0.0000000000000000e+00  -6.9420746739557668e-10 3.2118440617865647e-11 0.0000000000000000e+00  -7.0215860619423102e-10 -6.2564241843344958e-12 0.0000000000000000e+00  -6.9216935431184820e-10 -4.4378154364838537e-11 0.0000000000000000e+00  -6.6456150600755356e-10 -8.1214614595770462e-11 0.0000000000000000e+00  -6.2014820612222853e-10 -1.1575583563360548e-10 0.0000000000000000e+00  -5.6022611315212142e-10 -1.4702294277514147e-10 0.0000000000000000e+00  -4.8657545701316778e-10 -1.7406063910909430e-10 0.0000000000000000e+00  -4.0150434821190797e-10 -1.9588626497602695e-10 0.0000000000000000e+00  -3.0807255663354482e-10 -2.1132050930962237e-10 0.0000000000000000e+00  -2.1100524560487499e-10 -2.1849888782192104e-10 0.0000000000000000e+00  -1.2117624656503362e-10 -2.1396019950396229e-10 0.0000000000000000e+00  -6.5890958313399465e-11 -1.5943721424188452e-10 0.0000000000000000e+00  -6.9489275227204166e-11 3.5574335882282751e-10 0.0000000000000000e+00  -1.2635576068014701e-10 3.2028129182941654e-10 0.0000000000000000e+00  -2.1598826506053046e-10 3.1746419192847374e-10 0.0000000000000000e+00  -3.1033040510527543e-10 3.0284625691135188e-10 0.0000000000000000e+00  -3.9972820564510528e-10 2.7738922886214937e-10 0.0000000000000000e+00  -4.8038526409184516e-10 2.4300621380648370e-10 0.0000000000000000e+00  -5.4962420811108566e-10 2.0139687784238639e-10 0.0000000000000000e+00  -6.0533239682893401e-10 1.5409925545674849e-10 0.0000000000000000e+00  -6.4589510504372066e-10 1.0260233705320230e-10 0.0000000000000000e+00  -6.7018153601658726e-10 4.8399697236423873e-11 0.0000000000000000e+00  -6.7754259611156727e-10 -6.9981134442154177e-12 0.0000000000000000e+00  -6.6781107052727501e-10 -6.2072997669357437e-11 0.0000000000000000e+00  -6.4129886406044210e-10 -1.1531783796236496e-10 0.0000000000000000e+00  -5.9878937049044670e-10 -1.6525614209491659e-10 0.0000000000000000e+00  -5.4152512061760961e-10 -2.1045602873775432e-10 0.0000000000000000e+00  -4.7119477076963857e-10 -2.4952990873860517e-10 0.0000000000000000e+00  -3.8993944258551228e-10 -2.8110785512825609e-10 0.0000000000000000e+00  -3.0047685043089142e-10 -3.0377829895053764e-10 0.0000000000000000e+00  -2.0684255986163570e-10 -3.1600186513843760e-10 0.0000000000000000e+00  -1.1914781418562345e-10 -3.1586175803149798e-10 0.0000000000000000e+00  -6.6665150072611458e-11 -2.6425804863975036e-10 0.0000000000000000e+00  -7.3370622050843094e-11 4.6387879126667417e-10 0.0000000000000000e+00  -1.2666497093623281e-10 4.2460634822258756e-10 0.0000000000000000e+00  -2.1550482354748495e-10 4.1602760481139309e-10 0.0000000000000000e+00  -3.0879783055567544e-10 3.9514810510809080e-10 0.0000000000000000e+00  -3.9646175509028387e-10 3.6165969444873319e-10 0.0000000000000000e+00  -4.7504566863020697e-10 3.1704208631468903e-10 0.0000000000000000e+00  -5.4223906370196632e-10 2.6311699891316764e-10 0.0000000000000000e+00  -5.9615724051694998e-10 2.0176145130030906e-10 0.0000000000000000e+00  -6.3530639767268034e-10 1.3488420609292101e-10 0.0000000000000000e+00  -6.5862000450335349e-10 6.4430234438336458e-11 0.0000000000000000e+00  -6.6548239867855519e-10 -7.6259601990972031e-12 0.0000000000000000e+00  -6.5573800331379300e-10 -7.9299439875209853e-11 0.0000000000000000e+00  -6.2969050447459204e-10 -1.4862106531690384e-10 0.0000000000000000e+00  -5.8809325991438880e-10 -2.1366579244673398e-10 0.0000000000000000e+00  -5.3213058798339058e-10 -2.7257901658048372e-10 0.0000000000000000e+00  -4.6339133750596780e-10 -3.2359878759984952e-10 0.0000000000000000e+00  -3.8385371167191545e-10 -3.6507818258393858e-10 0.0000000000000000e+00  -2.9600164032378215e-10 -3.9553106046430898e-10 0.0000000000000000e+00  -2.0369790512318976e-10 -4.1369674330898258e-10 0.0000000000000000e+00  -1.1754768485283800e-10 -4.1816920693991368e-10 0.0000000000000000e+00  -6.9291584528167769e-11 -3.7010036604036860e-10 0.0000000000000000e+00  -7.8902335904804434e-11 5.7107202480989332e-10 0.0000000000000000e+00  -1.2828441752321757e-10 5.2884558559130672e-10 0.0000000000000000e+00  -2.1678171246797839e-10 5.1491386730955298e-10 0.0000000000000000e+00  -3.1024294458716873e-10 4.8721663510286105e-10 0.0000000000000000e+00  -3.9779856056635020e-10 4.4520216789968521e-10 0.0000000000000000e+00  -4.7591429802814699e-10 3.9013052451837216e-10 0.0000000000000000e+00  -5.4242357890783580e-10 3.2388492904947912e-10 0.0000000000000000e+00  -5.9560026503753242e-10 2.4859937220027410e-10 0.0000000000000000e+00  -6.3406515694240256e-10 1.6654618593325991e-10 0.0000000000000000e+00  -6.5682374778426342e-10 8.0086486625567092e-11 0.0000000000000000e+00  -6.6330078864133845e-10 -8.3652494416276222e-12 0.0000000000000000e+00  -6.5335719941671581e-10 -9.6376767394271615e-11 0.0000000000000000e+00  -6.2729246472004603e-10 -1.8153631401692177e-10 0.0000000000000000e+00  -5.8583501497803757e-10 -2.6149314455834272e-10 0.0000000000000000e+00  -5.3012116406979233e-10 -3.3400009549880645e-10 0.0000000000000000e+00  -4.6166603995778479e-10 -3.9696077610797481e-10 0.0000000000000000e+00  -3.8235496010235569e-10 -4.4849038659308299e-10 0.0000000000000000e+00  -2.9460981868027227e-10 -4.8700682175218066e-10 0.0000000000000000e+00  -2.0244793450025745e-10 -5.1129320350304867e-10 0.0000000000000000e+00  -1.1731838890379329e-10 -5.1994441557578831e-10 0.0000000000000000e+00  -7.3538414563985843e-11 -4.7436556947124237e-10 0.0000000000000000e+00  -8.5963976544374373e-11 6.7852939606236835e-10 0.0000000000000000e+00  -1.3123600212649237e-10 6.3365864683326170e-10 0.0000000000000000e+00  -2.1986447165785129e-10 6.1472704580150469e-10 0.0000000000000000e+00  -3.1427143535650029e-10 5.8003740187087057e-10 0.0000000000000000e+00  -4.0270789809665462e-10 5.2912254106233211e-10 0.0000000000000000e+00  -4.8139894345476454e-10 4.6327790473522078e-10 0.0000000000000000e+00  -5.4817387527744990e-10 3.8451014860209418e-10 0.0000000000000000e+00  -6.0137728116828749e-10 2.9519690805817352e-10 0.0000000000000000e+00  -6.3970788200125402e-10 1.9794431778175888e-10 0.0000000000000000e+00  -6.6223257405621907e-10 9.5502045769036605e-11 0.0000000000000000e+00  -6.6841627464830152e-10 -9.2984466903377400e-12 0.0000000000000000e+00  -6.5813969302426396e-10 -1.1359753061079755e-10 0.0000000000000000e+00  -6.3170351090897856e-10 -2.1455945738810239e-10 0.0000000000000000e+00  -5.8982064696682686e-10 -3.0942608227300883e-10 0.0000000000000000e+00  -5.3359808421727822e-10 -3.9557504782950399e-10 0.0000000000000000e+00  -4.6451501301184202e-10 -4.7058658180657868e-10 0.0000000000000000e+00  -3.8443528084577851e-10 -5.3232540643706653e-10 0.0000000000000000e+00  -2.9583354700076329e-10 -5.7904085698253250e-10 0.0000000000000000e+00  -2.0301554520006125e-10 -6.0939608959945582e-10 0.0000000000000000e+00  -1.1838701834161571e-10 -6.2181199767231734e-10 0.0000000000000000e+00  -7.9187102020338828e-11 -5.7766304469867492e-10 0.0000000000000000e+00  -9.4513475632706044e-11 7.8715649145763025e-10 0.0000000000000000e+00  -1.3529981568884615e-10 7.3977742448522432e-10 0.0000000000000000e+00  -2.2438257238635393e-10 7.1606610023983883e-10 0.0000000000000000e+00  -3.2022118603005520e-10 6.7430876379268388e-10 0.0000000000000000e+00  -4.1010411477215330e-10 6.1421219081746220e-10 0.0000000000000000e+00  -4.8996806374176841e-10 5.3725608485163171e-10 0.0000000000000000e+00  -5.5757054172300625e-10 4.4565696717767680e-10 0.0000000000000000e+00  -6.1126999182005114e-10 3.4206425141391173e-10 0.0000000000000000e+00  -6.4980933681074302e-10 2.2941594812934898e-10 0.0000000000000000e+00  -6.7230223736772982e-10 1.1083672883331060e-10 0.0000000000000000e+00  -6.7824996618081879e-10 -1.0441900278002474e-11 0.0000000000000000e+00  -6.6755430459449206e-10 -1.3114996491885444e-10 0.0000000000000000e+00  -6.4052144385334476e-10 -2.4804306588934779e-10 0.0000000000000000e+00  -5.9785729383579425e-10 -3.5796740618238482e-10 0.0000000000000000e+00  -5.4065596696646183e-10 -4.5793028813837910e-10 0.0000000000000000e+00  -4.7039031558179751e-10 -5.4518018258170157e-10 0.0000000000000000e+00  -3.8894857812296963e-10 -6.1729920353640131e-10 0.0000000000000000e+00  -2.9891427030905613e-10 -6.7230239021274107e-10 0.0000000000000000e+00  -2.0493273822709050e-10 -7.0864542235148319e-10 0.0000000000000000e+00  -1.2046189991268902e-10 -7.2452498740445809e-10 0.0000000000000000e+00  -8.6155048827671080e-11 -6.8100614026224942e-10 0.0000000000000000e+00  -1.0454997143442693e-10 8.9747626851607729e-10 0.0000000000000000e+00  -1.4015139287387801e-10 8.4771372705299374e-10 0.0000000000000000e+00  -2.2973597132697949e-10 8.1932453765402167e-10 0.0000000000000000e+00  -3.2718281070341264e-10 7.7041481727138572e-10 0.0000000000000000e+00  -4.1871308260855073e-10 7.0088612143745640e-10 0.0000000000000000e+00  -4.9996036441004049e-10 6.1248147566722797e-10 0.0000000000000000e+00  -5.6859156753921291e-10 5.0769838420526581e-10 0.0000000000000000e+00  -6.2295713551599149e-10 3.8949847042077944e-10 0.0000000000000000e+00  -6.6182877060354807e-10 2.6116570697950368e-10 0.0000000000000000e+00  -6.8435991616500328e-10 1.2619708996145912e-10 0.0000000000000000e+00  -6.9008675069307369e-10 -1.1787311139487316e-11 0.0000000000000000e+00  -6.7893284722330940e-10 -1.4912173414418906e-10 0.0000000000000000e+00  -6.5121123989978387e-10 -2.8216623081170001e-10 0.0000000000000000e+00  -6.0762351644768628e-10 -4.0737881255096288e-10 0.0000000000000000e+00  -5.4925735196143601e-10 -5.2139392262191675e-10 0.0000000000000000e+00  -4.7759181802263130e-10 -6.2111122585683630e-10 0.0000000000000000e+00  -3.9455788672007785e-10 -7.0379529670508634e-10 0.0000000000000000e+00  -3.0286765502132322e-10 -7.6717697491311925e-10 0.0000000000000000e+00  -2.0753108228279744e-10 -8.0945754348150178e-10 0.0000000000000000e+00  -1.2317110204034158e-10 -8.2859775055061476e-10 0.0000000000000000e+00  -9.4416029116726439e-11 -7.8516839525486580e-10 0.0000000000000000e+00  -1.1609690221398667e-10 1.0095763179304325e-09 0.0000000000000000e+00  -1.4539270663159616e-10 9.5763558091621748e-10 0.0000000000000000e+00  -2.3515541761659623e-10 9.2458208977629193e-10 0.0000000000000000e+00  -3.3401641081031862e-10 8.6839577490924021e-10 0.0000000000000000e+00  -4.2701068026351316e-10 7.8918397481294694e-10 0.0000000000000000e+00  -5.0946387182818619e-10 6.8900232630753154e-10 0.0000000000000000e+00  -5.7896144514761396e-10 5.7068409313118939e-10 0.0000000000000000e+00  -6.3385313480480507e-10 4.3754275584153570e-10 0.0000000000000000e+00  -6.7294622541430775e-10 2.9322725826641816e-10 0.0000000000000000e+00  -6.9544096301862976e-10 1.4160815180114313e-10 0.0000000000000000e+00  -7.0091395574846688e-10 -1.3316576611147610e-11 0.0000000000000000e+00  -6.8931238588285446e-10 -1.6750131112650068e-10 0.0000000000000000e+00  -6.6095328535307256e-10 -3.1692531588075925e-10 0.0000000000000000e+00  -6.1652732174557277e-10 -4.5766607756967501e-10 0.0000000000000000e+00  -5.5710767833382070e-10 -5.8598087767453046e-10 0.0000000000000000e+00  -4.8417249788175492e-10 -6.9840136979349052e-10 0.0000000000000000e+00  -3.9969029258355372e-10 -7.9184119803696961e-10 0.0000000000000000e+00  -3.0649973161661745e-10 -8.6370651976943376e-10 0.0000000000000000e+00  -2.0999229393768844e-10 -9.1191237919023326e-10 0.0000000000000000e+00  -1.2608145173701804e-10 -9.3418077181701791e-10 0.0000000000000000e+00  -1.0397127491648278e-10 -8.9053346733826356e-10 0.0000000000000000e+00  -1.2919279218537162e-10 1.1230461689153256e-09 0.0000000000000000e+00  -1.5055064566368947e-10 1.0692804971940131e-09 0.0000000000000000e+00  -2.3970551738407760e-10 1.0315142279326597e-09 0.0000000000000000e+00  -3.3933458285138488e-10 9.6788834812197094e-10 0.0000000000000000e+00  -4.3316334863431934e-10 8.7873790553452161e-10 0.0000000000000000e+00  -5.1621136546519397e-10 7.6647421864394567e-10 0.0000000000000000e+00  -5.8601186423952929e-10 6.3431381464976696e-10 0.0000000000000000e+00  -6.4094650179681772e-10 4.8595834551672124e-10 0.0000000000000000e+00  -6.7988834550476142e-10 3.2543901174204852e-10 0.0000000000000000e+00  -7.0210899930768949e-10 1.5699790551876578e-10 0.0000000000000000e+00  -7.0724114413353561e-10 -1.5005653532565574e-11 0.0000000000000000e+00  -6.9525974968177334e-10 -1.8616993613404697e-10 0.0000000000000000e+00  -6.6647784536031147e-10 -3.5211598284557343e-10 0.0000000000000000e+00  -6.2155658807610754e-10 -5.0855436536979499e-10 0.0000000000000000e+00  -5.6152897941018427e-10 -6.5136404193911383e-10 0.0000000000000000e+00  -4.8784381158693779e-10 -7.7669031243175546e-10 0.0000000000000000e+00  -4.0248043252840652e-10 -8.8106280524387150e-10 0.0000000000000000e+00  -3.0838564214461419e-10 -9.6152350871344580e-10 0.0000000000000000e+00  -2.1134421869829135e-10 -1.0156697089881367e-09 0.0000000000000000e+00  -1.2869063973012481e-10 -1.0409803403675944e-09 0.0000000000000000e+00  -1.1483852823941027e-10 -9.9703178984332551e-10 0.0000000000000000e+00  -1.4388580839313616e-10 1.2368943988068956e-09 0.0000000000000000e+00  -1.5506219299358128e-10 1.1818662481084170e-09 0.0000000000000000e+00  -2.4226008670470997e-10 1.1392969767041245e-09 0.0000000000000000e+00  -3.4145832420277574e-10 1.0680410074877097e-09 0.0000000000000000e+00  -4.3495272350176169e-10 9.6870362924825869e-10 0.0000000000000000e+00  -5.1746828493474970e-10 8.4410278727653878e-10 0.0000000000000000e+00  -5.8653557051903116e-10 6.9788764175303549e-10 0.0000000000000000e+00  -6.4062688892184151e-10 5.3418272290348277e-10 0.0000000000000000e+00  -6.7873719269703228e-10 3.5741335347638818e-10 0.0000000000000000e+00  -7.0025488606486246e-10 1.7218119822868282e-10 0.0000000000000000e+00  -7.0489717507245166e-10 -1.6823733603820392e-11 0.0000000000000000e+00  -6.9267426542050349e-10 -2.0488367409189117e-10 0.0000000000000000e+00  -6.6388078988171192e-10 -3.8729993531934726e-10 0.0000000000000000e+00  -6.1911480656412300e-10 -5.5944261766298416e-10 0.0000000000000000e+00  -5.5932205069826743e-10 -7.1681901850853586e-10 0.0000000000000000e+00  -4.8586909627262544e-10 -8.5517192455551641e-10 0.0000000000000000e+00  -4.0069628521431109e-10 -9.7061099593174597e-10 0.0000000000000000e+00  -3.0682307912727906e-10 -1.0597677611068505e-09 0.0000000000000000e+00  -2.1043230395801151e-10 -1.1198808816623715e-09 0.0000000000000000e+00  -1.3040945736098920e-10 -1.1481754501077184e-09 0.0000000000000000e+00  -1.2704650655736676e-10 -1.1040753596346748e-09 0.0000000000000000e+00  -1.6023088575040880e-10 1.3494411138716954e-09 0.0000000000000000e+00  -1.5825283260933686e-10 1.2939853892924799e-09 0.0000000000000000e+00  -2.4146145204227596e-10 1.2464955599172040e-09 0.0000000000000000e+00  -3.3835226575704276e-10 1.1674040914252675e-09 0.0000000000000000e+00  -4.2967999231357921e-10 1.0576580703777684e-09 0.0000000000000000e+00  -5.0990180168958177e-10 9.2055163297105731e-10 0.0000000000000000e+00  -5.7662067049108370e-10 7.6022615554733921e-10 0.0000000000000000e+00  -6.2848963002579560e-10 5.8126504052674048e-10 0.0000000000000000e+00  -6.6471286839137756e-10 3.8849146000123721e-10 0.0000000000000000e+00  -6.8486665797286057e-10 1.8683770200148066e-10 0.0000000000000000e+00  -6.8879713236979529e-10 -1.8729932294803150e-11 0.0000000000000000e+00  -6.7656123690776264e-10 -2.2324483045719263e-10 0.0000000000000000e+00  -6.4841259268239804e-10 -4.2175338491443292e-10 0.0000000000000000e+00  -6.0483344993418086e-10 -6.0933303120723201e-10 0.0000000000000000e+00  -5.4660820520916586e-10 -7.8113917591936183e-10 0.0000000000000000e+00  -4.7493796157597989e-10 -9.3249900812209525e-10 0.0000000000000000e+00  -3.9164578753056690e-10 -1.0590594406870161e-09 0.0000000000000000e+00  -2.9976705897903229e-10 -1.1569805777142112e-09 0.0000000000000000e+00  -2.0587694122165323e-10 -1.2230834829481973e-09 0.0000000000000000e+00  -1.3053834575101991e-10 -1.2543175056950056e-09 0.0000000000000000e+00  -1.4063152158421342e-10 -1.2104724109501555e-09 0.0000000000000000e+00  -1.7828952835459511e-10 1.4581819362838532e-09 0.0000000000000000e+00  -1.5931056768852667e-10 1.4034762757941203e-09 0.0000000000000000e+00  -2.3566819845510302e-10 1.3509289496585838e-09 0.0000000000000000e+00  -3.2754200406984561e-10 1.2637908611049029e-09 0.0000000000000000e+00  -4.1404776858440278e-10 1.1434624476825853e-09 0.0000000000000000e+00  -4.8942