<?xml version="1.0"?>
<VTKFile type="UnstructuredGrid"  version="0.1"  >
<UnstructuredGrid>
<Piece  NumberOfPoints="651" NumberOfCells="1200">
<Points>
<DataArray  type="Float64"  NumberOfComponents="3"  format="ascii">0 0 0  50000 0 0  100000 0 0  150000 0 0  200000 0 0  250000 0 0  300000 0 0  350000 0 0  400000 0 0  450000 0 0  500000 0 0  550000 0 0  600000 0 0  650000 0 0  700000 0 0  750000 0 0  800000 0 0  850000 0 0  900000 0 0  950000 0 0  1000000 0 0  0 50000 0  50000 50000 0  100000 50000 0  150000 50000 0  200000 50000 0  250000 50000 0  300000 50000 0  350000 50000 0  400000 50000 0  450000 50000 0  500000 50000 0  550000 50000 0  600000 50000 0  650000 50000 0  700000 50000 0  750000 50000 0  800000 50000 0  850000 50000 0  900000 50000 0  950000 50000 0  1000000 50000 0  0 100000 0  50000 100000 0  100000 100000 0  150000 100000 0  200000 100000 0  250000 100000 0  300000 100000 0  350000 100000 0  400000 100000 0  450000 100000 0  500000 100000 0  550000 100000 0  600000 100000 0  650000 100000 0  700000 100000 0  750000 100000 0  800000 100000 0  850000 100000 0  900000 100000 0  950000 100000 0  1000000 100000 0  0 150000 0  50000 150000 0  100000 150000 0  150000 150000 0  200000 150000 0  250000 150000 0  300000 150000 0  350000 150000 0  400000 150000 0  450000 150000 0  500000 150000 0  550000 150000 0  600000 150000 0  650000 150000 0  700000 150000 0  750000 150000 0  800000 150000 0  850000 150000 0  900000 150000 0  950000 150000 0  1000000 150000 0  0 200000 0  50000 200000 0  100000 200000 0  150000 200000 0  200000 200000 0  250000 200000 0  300000 200000 0  350000 200000 0  400000 200000 0  450000 200000 0  500000 200000 0  550000 200000 0  600000 200000 0  650000 200000 0  700000 200000 0  750000 200000 0  800000 200000 0  850000 200000 0  900000 200000 0  950000 200000 0  1000000 200000 0  0 250000 0  50000 250000 0  100000 250000 0  150000 250000 0  200000 250000 0  250000 250000 0  300000 250000 0  350000 250000 0  400000 250000 0  450000 250000 0  500000 250000 0  550000 250000 0  600000 250000 0  650000 250000 0  700000 250000 0  750000 250000 0  800000 250000 0  850000 250000 0  900000 250000 0  950000 250000 0  1000000 250000 0  0 300000 0  50000 300000 0  100000 300000 0  150000 300000 0  200000 300000 0  250000 300000 0  300000 300000 0  350000 300000 0  400000 300000 0  450000 300000 0  500000 300000 0  550000 300000 0  600000 300000 0  650000 300000 0  700000 300000 0  750000 300000 0  800000 300000 0  850000 300000 0  900000 300000 0  950000 300000 0  1000000 300000 0  0 350000 0  50000 350000 0  100000 350000 0  150000 350000 0  200000 350000 0  250000 350000 0  300000 350000 0  350000 350000 0  400000 350000 0  450000 350000 0  500000 350000 0  550000 350000 0  600000 350000 0  650000 350000 0  700000 350000 0  750000 350000 0  800000 350000 0  850000 350000 0  900000 350000 0  950000 350000 0  1000000 350000 0  0 400000 0  50000 400000 0  100000 400000 0  150000 400000 0  200000 400000 0  250000 400000 0  300000 400000 0  350000 400000 0  400000 400000 0  450000 400000 0  500000 400000 0  550000 400000 0  600000 400000 0  650000 400000 0  700000 400000 0  750000 400000 0  800000 400000 0  850000 400000 0  900000 400000 0  950000 400000 0  1000000 400000 0  0 450000 0  50000 450000 0  100000 450000 0  150000 450000 0  200000 450000 0  250000 450000 0  300000 450000 0  350000 450000 0  400000 450000 0  450000 450000 0  500000 450000 0  550000 450000 0  600000 450000 0  650000 450000 0  700000 450000 0  750000 450000 0  800000 450000 0  850000 450000 0  900000 450000 0  950000 450000 0  1000000 450000 0  0 500000 0  50000 500000 0  100000 500000 0  150000 500000 0  200000 500000 0  250000 500000 0  300000 500000 0  350000 500000 0  400000 500000 0  450000 500000 0  500000 500000 0  550000 500000 0  600000 500000 0  650000 500000 0  700000 500000 0  750000 500000 0  800000 500000 0  850000 500000 0  900000 500000 0  950000 500000 0  1000000 500000 0  0 550000 0  50000 550000 0  100000 550000 0  150000 550000 0  200000 550000 0  250000 550000 0  300000 550000 0  350000 550000 0  400000 550000 0  450000 550000 0  500000 550000 0  550000 550000 0  600000 550000 0  650000 550000 0  700000 550000 0  750000 550000 0  800000 550000 0  850000 550000 0  900000 550000 0  950000 550000 0  1000000 550000 0  0 600000 0  50000 600000 0  100000 600000 0  150000 600000 0  200000 600000 0  250000 600000 0  300000 600000 0  350000 600000 0  400000 600000 0  450000 600000 0  500000 600000 0  550000 600000 0  600000 600000 0  650000 600000 0  700000 600000 0  750000 600000 0  800000 600000 0  850000 600000 0  900000 600000 0  950000 600000 0  1000000 600000 0  0 650000 0  50000 650000 0  100000 650000 0  150000 650000 0  200000 650000 0  250000 650000 0  300000 650000 0  350000 650000 0  400000 650000 0  450000 650000 0  500000 650000 0  550000 650000 0  600000 650000 0  650000 650000 0  700000 650000 0  750000 650000 0  800000 650000 0  850000 650000 0  900000 650000 0  950000 650000 0  1000000 650000 0  0 700000 0  50000 700000 0  100000 700000 0  150000 700000 0  200000 700000 0  250000 700000 0  300000 700000 0  350000 700000 0  400000 700000 0  450000 700000 0  500000 700000 0  550000 700000 0  600000 700000 0  650000 700000 0  700000 700000 0  750000 700000 0  800000 700000 0  850000 700000 0  900000 700000 0  950000 700000 0  1000000 700000 0  0 750000 0  50000 750000 0  100000 750000 0  150000 750000 0  200000 750000 0  250000 750000 0  300000 750000 0  350000 750000 0  400000 750000 0  450000 750000 0  500000 750000 0  550000 750000 0  600000 750000 0  650000 750000 0  700000 750000 0  750000 750000 0  800000 750000 0  850000 750000 0  900000 750000 0  950000 750000 0  1000000 750000 0  0 800000 0  50000 800000 0  100000 800000 0  150000 800000 0  200000 800000 0  250000 800000 0  300000 800000 0  350000 800000 0  400000 800000 0  450000 800000 0  500000 800000 0  550000 800000 0  600000 800000 0  650000 800000 0  700000 800000 0  750000 800000 0  800000 800000 0  850000 800000 0  900000 800000 0  950000 800000 0  1000000 800000 0  0 850000 0  50000 850000 0  100000 850000 0  150000 850000 0  200000 850000 0  250000 850000 0  300000 850000 0  350000 850000 0  400000 850000 0  450000 850000 0  500000 850000 0  550000 850000 0  600000 850000 0  650000 850000 0  700000 850000 0  750000 850000 0  800000 850000 0  850000 850000 0  900000 850000 0  950000 850000 0  1000000 850000 0  0 900000 0  50000 900000 0  100000 900000 0  150000 900000 0  200000 900000 0  250000 900000 0  300000 900000 0  350000 900000 0  400000 900000 0  450000 900000 0  500000 900000 0  550000 900000 0  600000 900000 0  650000 900000 0  700000 900000 0  750000 900000 0  800000 900000 0  850000 900000 0  900000 900000 0  950000 900000 0  1000000 900000 0  0 950000 0  50000 950000 0  100000 950000 0  150000 950000 0  200000 950000 0  250000 950000 0  300000 950000 0  350000 950000 0  400000 950000 0  450000 950000 0  500000 950000 0  550000 950000 0  600000 950000 0  650000 950000 0  700000 950000 0  750000 950000 0  800000 950000 0  850000 950000 0  900000 950000 0  950000 950000 0  1000000 950000 0  0 1000000 0  50000 1000000 0  100000 1000000 0  150000 1000000 0  200000 1000000 0  250000 1000000 0  300000 1000000 0  350000 1000000 0  400000 1000000 0  450000 1000000 0  500000 1000000 0  550000 1000000 0  600000 1000000 0  650000 1000000 0  700000 1000000 0  750000 1000000 0  800000 1000000 0  850000 1000000 0  900000 1000000 0  950000 1000000 0  1000000 1000000 0  0 1050000 0  50000 1050000 0  100000 1050000 0  150000 1050000 0  200000 1050000 0  250000 1050000 0  300000 1050000 0  350000 1050000 0  400000 1050000 0  450000 1050000 0  500000 1050000 0  550000 1050000 0  600000 1050000 0  650000 1050000 0  700000 1050000 0  750000 1050000 0  800000 1050000 0  850000 1050000 0  900000 1050000 0  950000 1050000 0  1000000 1050000 0  0 1100000 0  50000 1100000 0  100000 1100000 0  150000 1100000 0  200000 1100000 0  250000 1100000 0  300000 1100000 0  350000 1100000 0  400000 1100000 0  450000 1100000 0  500000 1100000 0  550000 1100000 0  600000 1100000 0  650000 1100000 0  700000 1100000 0  750000 1100000 0  800000 1100000 0  850000 1100000 0  900000 1100000 0  950000 1100000 0  1000000 1100000 0  0 1150000 0  50000 1150000 0  100000 1150000 0  150000 1150000 0  200000 1150000 0  250000 1150000 0  300000 1150000 0  350000 1150000 0  400000 1150000 0  450000 1150000 0  500000 1150000 0  550000 1150000 0  600000 1150000 0  650000 1150000 0  700000 1150000 0  750000 1150000 0  800000 1150000 0  850000 1150000 0  900000 1150000 0  950000 1150000 0  1000000 1150000 0  0 1200000 0  50000 1200000 0  100000 1200000 0  150000 1200000 0  200000 1200000 0  250000 1200000 0  300000 1200000 0  350000 1200000 0  400000 1200000 0  450000 1200000 0  500000 1200000 0  550000 1200000 0  600000 1200000 0  650000 1200000 0  700000 1200000 0  750000 1200000 0  800000 1200000 0  850000 1200000 0  900000 1200000 0  950000 1200000 0  1000000 1200000 0  0 1250000 0  50000 1250000 0  100000 1250000 0  150000 1250000 0  200000 1250000 0  250000 1250000 0  300000 1250000 0  350000 1250000 0  400000 1250000 0  450000 1250000 0  500000 1250000 0  550000 1250000 0  600000 1250000 0  650000 1250000 0  700000 1250000 0  750000 1250000 0  800000 1250000 0  850000 1250000 0  900000 1250000 0  950000 1250000 0  1000000 1250000 0  0 1300000 0  50000 1300000 0  100000 1300000 0  150000 1300000 0  200000 1300000 0  250000 1300000 0  300000 1300000 0  350000 1300000 0  400000 1300000 0  450000 1300000 0  500000 1300000 0  550000 1300000 0  600000 1300000 0  650000 1300000 0  700000 1300000 0  750000 1300000 0  800000 1300000 0  850000 1300000 0  900000 1300000 0  950000 1300000 0  1000000 1300000 0  0 1350000 0  50000 1350000 0  100000 1350000 0  150000 1350000 0  200000 1350000 0  250000 1350000 0  300000 1350000 0  350000 1350000 0  400000 1350000 0  450000 1350000 0  500000 1350000 0  550000 1350000 0  600000 1350000 0  650000 1350000 0  700000 135
[...]
<PointData  Vectors="f_1505"> 
<DataArray  type="Float64"  Name="f_1505"  NumberOfComponents="3" format="ascii">-8.0696611328779728e-11 6.9944957319119448e-11 0.0000000000000000e+00  -1.4898060515550467e-10 5.6466506098547228e-11 0.0000000000000000e+00  -2.7076068068588021e-10 5.0237101375347193e-11 0.0000000000000000e+00  -3.8871349493467041e-10 4.4746087841015096e-11 0.0000000000000000e+00  -4.9680545841068061e-10 3.8599347533787119e-11 0.0000000000000000e+00  -5.9182234876523860e-10 3.1610644709369153e-11 0.0000000000000000e+00  -6.7117594227608171e-10 2.3826186783082521e-11 0.0000000000000000e+00  -7.3278765783688158e-10 1.5379038754471062e-11 0.0000000000000000e+00  -7.7507665901433022e-10 6.4491120447729461e-12 0.0000000000000000e+00  -7.9698180936110397e-10 -2.7565687375896363e-12 0.0000000000000000e+00  -7.9798096321027069e-10 -1.2016055924241504e-11 0.0000000000000000e+00  -7.7809989561262152e-10 -2.1101623572359886e-11 0.0000000000000000e+00  -7.3790933999456743e-10 -2.9787743280966963e-11 0.0000000000000000e+00  -6.7851005522761902e-10 -3.7858837387655751e-11 0.0000000000000000e+00  -6.0150863285988073e-10 -4.5117834110761641e-11 0.0000000000000000e+00  -5.0900073168170311e-10 -5.1398549794379839e-11 0.0000000000000000e+00  -4.0364864049087187e-10 -5.6593210790965631e-11 0.0000000000000000e+00  -2.8925048679603353e-10 -6.0727474598722047e-11 0.0000000000000000e+00  -1.7342223105547348e-10 -6.3859875492462041e-11 0.0000000000000000e+00  -7.8991362232034593e-11 -6.1460758828565182e-11 0.0000000000000000e+00  -3.9106952069563239e-11 -4.0227589176044382e-11 0.0000000000000000e+00  -6.9037059047878962e-11 1.3186906582009649e-10 0.0000000000000000e+00  -1.2294983750272398e-10 1.1977084387398409e-10 0.0000000000000000e+00  -2.1832874045454565e-10 1.2402182257893136e-10 0.0000000000000000e+00  -3.2437850195238976e-10 1.1832737668986760e-10 0.0000000000000000e+00  -4.2582646419168607e-10 1.0773060813715889e-10 0.0000000000000000e+00  -5.1739694344073438e-10 9.3677991154901774e-11 0.0000000000000000e+00  -5.9601917724406761e-10 7.6912040270946626e-11 0.0000000000000000e+00  -6.5937717088529694e-10 5.8017628424064433e-11 0.0000000000000000e+00  -7.0570547166253813e-10 3.7556322243612077e-11 0.0000000000000000e+00  -7.3375712702703388e-10 1.6097937505144866e-11 0.0000000000000000e+00  -7.4280336701082412e-10 -5.7771458286194252e-12 0.0000000000000000e+00  -7.3263706739993191e-10 -2.7485132184494200e-11 0.0000000000000000e+00  -7.0357124724041615e-10 -4.8449044586739360e-11 0.0000000000000000e+00  -6.5643032891814795e-10 -6.8109279717638727e-11 0.0000000000000000e+00  -5.9253623766604032e-10 -8.5932214650991406e-11 0.0000000000000000e+00  -5.1370045618987941e-10 -1.0141293770771497e-10 0.0000000000000000e+00  -4.2226672006451290e-10 -1.1405910981933244e-10 0.0000000000000000e+00  -3.2139606445277778e-10 -1.2328251103928167e-10 0.0000000000000000e+00  -2.1640536498508264e-10 -1.2774161819165594e-10 0.0000000000000000e+00  -1.2029371772812261e-10 -1.2229487487976447e-10 0.0000000000000000e+00  -6.1807450381218560e-11 -7.7750692046988953e-11 0.0000000000000000e+00  -6.8357746505550535e-11 2.4149297603492204e-10 0.0000000000000000e+00  -1.2524337312437338e-10 2.1330525499770079e-10 0.0000000000000000e+00  -2.1539735042097029e-10 2.1690307942260039e-10 0.0000000000000000e+00  -3.1229392981884739e-10 2.0850781155063761e-10 0.0000000000000000e+00  -4.0543019090368979e-10 1.9143704657553681e-10 0.0000000000000000e+00  -4.9012364239915262e-10 1.6783740073884939e-10 0.0000000000000000e+00  -5.6321998531736933e-10 1.3913126976878646e-10 0.0000000000000000e+00  -6.2238790335060148e-10 1.0644863653776586e-10 0.0000000000000000e+00  -6.6587194209907126e-10 7.0837441539824582e-11 0.0000000000000000e+00  -6.9243417075862763e-10 3.3336142507492987e-11 0.0000000000000000e+00  -7.0134311989396632e-10 -5.0098690257744416e-12 0.0000000000000000e+00  -6.9237129645889621e-10 -4.3153838920911246e-11 0.0000000000000000e+00  -6.6579095966335886e-10 -8.0061281410724464e-11 0.0000000000000000e+00  -6.2236512212149138e-10 -1.1472475510696308e-10 0.0000000000000000e+00  -5.6333507347275640e-10 -1.4617398175570235e-10 0.0000000000000000e+00  -4.9041346084826790e-10 -1.7347181841165749e-10 0.0000000000000000e+00  -4.0581734591001930e-10 -1.9567280123028958e-10 0.0000000000000000e+00  -3.1247206228670485e-10 -2.1167962228359734e-10 0.0000000000000000e+00  -2.1488856258399461e-10 -2.1981879946859309e-10 0.0000000000000000e+00  -1.2341478922971080e-10 -2.1680659835816345e-10 0.0000000000000000e+00  -6.4992693282189277e-11 -1.6597961931501062e-10 0.0000000000000000e+00  -7.1274283624380122e-11 3.4928586016697313e-10 0.0000000000000000e+00  -1.2467071471530491e-10 3.1573587995305190e-10 0.0000000000000000e+00  -2.1284049783552581e-10 3.1408489325278853e-10 0.0000000000000000e+00  -3.0616247655126647e-10 3.0093007560069064e-10 0.0000000000000000e+00  -3.9483850672767446e-10 2.7674985216101189e-10 0.0000000000000000e+00  -4.7514882016002664e-10 2.4337308726659497e-10 0.0000000000000000e+00  -5.4444552778174133e-10 2.0253123091755195e-10 0.0000000000000000e+00  -6.0058298903685353e-10 1.5580286201021310e-10 0.0000000000000000e+00  -6.4188491352490715e-10 1.0471002024201779e-10 0.0000000000000000e+00  -6.6715035703517341e-10 5.0770992094379815e-11 0.0000000000000000e+00  -6.7565950613247694e-10 -4.4866110763668495e-12 0.0000000000000000e+00  -6.6717572666649312e-10 -5.9534867867584649e-11 0.0000000000000000e+00  -6.4194168026248012e-10 -1.1286453874256587e-10 0.0000000000000000e+00  -6.0066846212529709e-10 -1.6300641878302863e-10 0.0000000000000000e+00  -5.4451787455906749e-10 -2.0854893825427332e-10 0.0000000000000000e+00  -4.7508154999655206e-10 -2.4814504760164264e-10 0.0000000000000000e+00  -3.9437681544022487e-10 -2.8049994887368477e-10 0.0000000000000000e+00  -3.0495970566521583e-10 -3.0433750984277238e-10 0.0000000000000000e+00  -2.1066542522463258e-10 -3.1833758952702312e-10 0.0000000000000000e+00  -1.2117388980780923e-10 -3.2057513252999706e-10 0.0000000000000000e+00  -6.5384210369250141e-11 -2.7317266556672292e-10 0.0000000000000000e+00  -7.6096320246279556e-11 4.5465182626097516e-10 0.0000000000000000e+00  -1.2481655069761133e-10 4.1820651680663435e-10 0.0000000000000000e+00  -2.1163435850957158e-10 4.1133818827689035e-10 0.0000000000000000e+00  -3.0366295790757764e-10 3.9224983005657981e-10 0.0000000000000000e+00  -3.9052114522362378e-10 3.6044118737727965e-10 0.0000000000000000e+00  -4.6872522875275003e-10 3.1727206070598175e-10 0.0000000000000000e+00  -5.3596645269360382e-10 2.6453422035042824e-10 0.0000000000000000e+00  -5.9033192946704834e-10 2.0411200164920225e-10 0.0000000000000000e+00  -6.3027204708273661e-10 1.3793279328650798e-10 0.0000000000000000e+00  -6.5464930337138448e-10 6.7961190348562981e-11 0.0000000000000000e+00  -6.6277045844083192e-10 -3.8122544556848353e-12 0.0000000000000000e+00  -6.5439982690808604e-10 -7.5393081643132576e-11 0.0000000000000000e+00  -6.2975900703144052e-10 -1.4481219503190521e-10 0.0000000000000000e+00  -5.8951509547455136e-10 -2.1015815888248985e-10 0.0000000000000000e+00  -5.3475759084994291e-10 -2.6960933090408683e-10 0.0000000000000000e+00  -4.6696614660660766e-10 -3.2146479072171982e-10 0.0000000000000000e+00  -3.8799013245660573e-10 -3.6417929251990313e-10 0.0000000000000000e+00  -3.0016534789883383e-10 -3.9642143387451520e-10 0.0000000000000000e+00  -2.0720044353275479e-10 -4.1712076482484549e-10 0.0000000000000000e+00  -1.1931203185576396e-10 -4.2471292461137176e-10 0.0000000000000000e+00  -6.7756486568767083e-11 -3.8143181588536539e-10 0.0000000000000000e+00  -8.2498356924911647e-11 5.5891864082864618e-10 0.0000000000000000e+00  -1.2634893291683069e-10 5.2019871895877183e-10 0.0000000000000000e+00  -2.1239142750338801e-10 5.0866242886334718e-10 0.0000000000000000e+00  -3.0436924789170012e-10 4.8323070080857258e-10 0.0000000000000000e+00  -3.9102308034505884e-10 4.4335406669079324e-10 0.0000000000000000e+00  -4.6873461304656167e-10 3.9019388810317894e-10 0.0000000000000000e+00  -5.3530331695110874e-10 3.2557479182217583e-10 0.0000000000000000e+00  -5.8895940762311963e-10 2.5160973858789356e-10 0.0000000000000000e+00  -6.2826154250775343e-10 1.7057141792551716e-10 0.0000000000000000e+00  -6.5213934712516003e-10 8.4831116101006240e-11 0.0000000000000000e+00  -6.5993422469712908e-10 -3.1846758795240888e-12 0.0000000000000000e+00  -6.5142040864748978e-10 -9.1036059704149267e-11 0.0000000000000000e+00  -6.2680877851340483e-10 -1.7631380902181503e-10 0.0000000000000000e+00  -5.8673622196002390e-10 -2.5668609375429867e-10 0.0000000000000000e+00  -5.3224180718507906e-10 -3.2994821535591875e-10 0.0000000000000000e+00  -4.6473448704297329e-10 -3.9407803453235249e-10 0.0000000000000000e+00  -3.8598321354251189e-10 -4.4730470018646108e-10 0.0000000000000000e+00  -2.9828759738400132e-10 -4.8819966350738711e-10 0.0000000000000000e+00  -2.0554507053700277e-10 -5.1570117487785422e-10 0.0000000000000000e+00  -1.1881482452395695e-10 -5.2815989291579924e-10 0.0000000000000000e+00  -7.1842580747119879e-11 -4.8805069655911952e-10 0.0000000000000000e+00  -9.0372956532715334e-11 6.6327570595497640e-10 0.0000000000000000e+00  -1.2923642590532088e-10 6.2250520514151126e-10 0.0000000000000000e+00  -2.1505988436786378e-10 6.0668514587956563e-10 0.0000000000000000e+00  -3.0781419463884112e-10 5.7484627225782884e-10 0.0000000000000000e+00  -3.9527148782131839e-10 5.2660542093314325e-10 0.0000000000000000e+00  -4.7354680124900808e-10 4.6317691131202957e-10 0.0000000000000000e+00  -5.4040786854685389e-10 3.8649673968595816e-10 0.0000000000000000e+00  -5.9413461704623181e-10 2.9890271919422464e-10 0.0000000000000000e+00  -6.3334965970542891e-10 2.0298651394945904e-10 0.0000000000000000e+00  -6.5703459796697428e-10 1.0149930682154750e-10 0.0000000000000000e+00  -6.6456439020413840e-10 -2.7190735379391118e-12 0.0000000000000000e+00  -6.5572879361740263e-10 -1.0680226123853376e-10 0.0000000000000000e+00  -6.3073831610773244e-10 -2.0791753762500390e-10 0.0000000000000000e+00  -5.9021630336087558e-10 -3.0332762448511274e-10 0.0000000000000000e+00  -5.3517922136404063e-10 -3.9045685925396729e-10 0.0000000000000000e+00  -4.6701304061278638e-10 -4.6696522532779857e-10 0.0000000000000000e+00  -3.8748541545737067e-10 -5.3083430869340327e-10 0.0000000000000000e+00  -2.9897416905169861e-10 -5.8046044262429158e-10 0.0000000000000000e+00  -2.0568572589375035e-10 -6.1463981605139346e-10 0.0000000000000000e+00  -1.1961701194147868e-10 -6.3150769928813882e-10 0.0000000000000000e+00  -7.7386496596760377e-11 -5.9357919355514942e-10 0.0000000000000000e+00  -9.9683202078613706e-11 7.6860387839886488e-10 0.0000000000000000e+00  -1.3323448334924354e-10 7.2591441065244318e-10 0.0000000000000000e+00  -2.1921436021521099e-10 7.0606294745923870e-10 0.0000000000000000e+00  -3.1327960918564260e-10 6.6781858132290143e-10 0.0000000000000000e+00  -4.0214215574863640e-10 6.1100356342527457e-10 0.0000000000000000e+00  -4.8160663294369078e-10 5.3701436979816081e-10 0.0000000000000000e+00  -5.4934599957262291e-10 4.4798632762044354e-10 0.0000000000000000e+00  -6.0363173621127923e-10 3.4651631395325198e-10 0.0000000000000000e+00  -6.4311272746132245e-10 2.3551819261739791e-10 0.0000000000000000e+00  -6.6680458183077356e-10 1.1811342111463785e-10 0.0000000000000000e+00  -6.7411081326036242e-10 -2.4583466733145549e-12 0.0000000000000000e+00  -6.6483925790964673e-10 -1.2291772497957497e-10 0.0000000000000000e+00  -6.3920789072214420e-10 -2.4001968874170958e-10 0.0000000000000000e+00  -5.9784033344887414e-10 -3.5062827048693528e-10 0.0000000000000000e+00  -5.4175321122528097e-10 -4.5179584541132304e-10 0.0000000000000000e+00  -4.7234497121127516e-10 -5.4085000916918723e-10 0.0000000000000000e+00  -3.9143099808831014e-10 -6.1548836717901776e-10 0.0000000000000000e+00  -3.0152160065421291e-10 -6.7386875371357978e-10 0.0000000000000000e+00  -2.0717755107139873e-10 -7.1457325421259930e-10 0.0000000000000000e+00  -1.2142469504495601e-10 -7.3549808276138192e-10 0.0000000000000000e+00  -8.4273951432120945e-11 -6.9898753237164194e-10 0.0000000000000000e+00  -1.1042957497564604e-10 8.7539770373579858e-10 0.0000000000000000e+00  -1.3800686138600573e-10 8.3096024039246828e-10 0.0000000000000000e+00  -2.2422690726224594e-10 8.0723772888405096e-10 0.0000000000000000e+00  -3.1982580712714571e-10 7.6257310599584983e-10 0.0000000000000000e+00  -4.1034112813454809e-10 6.9699808204143057e-10 0.0000000000000000e+00  -4.9124802118376381e-10 6.1215481080250108e-10 0.0000000000000000e+00  -5.6010466655892150e-10 5.1044560135338429e-10 0.0000000000000000e+00  -6.1515029267096851e-10 3.9476969326440215e-10 0.0000000000000000e+00  -6.5504170289632687e-10 2.6838227568334932e-10 0.0000000000000000e+00  -6.7881895538083161e-10 1.3477793781059550e-10 0.0000000000000000e+00  -6.8591150925305277e-10 -2.4097083714764126e-12 0.0000000000000000e+00  -6.7614666877159661e-10 -1.3949709132625176e-10 0.0000000000000000e+00  -6.4975363388299072e-10 -2.7283405990955087e-10 0.0000000000000000e+00  -6.0736274336720119e-10 -3.9888733597667177e-10 0.0000000000000000e+00  -5.5000156287700178e-10 -5.1432892671744728e-10 0.0000000000000000e+00  -4.7909749014929764e-10 -6.1613229092813396e-10 0.0000000000000000e+00  -3.9653440616679983e-10 -7.0167460865725237e-10 0.0000000000000000e+00  -3.0497550936020818e-10 -7.6882990835142370e-10 0.0000000000000000e+00  -2.0936175812352553e-10 -8.1593218688763857e-10 0.0000000000000000e+00  -1.2386123234853130e-10 -8.4064244682877654e-10 0.0000000000000000e+00  -9.2453771103712707e-11 -8.0501152827717798e-10 0.0000000000000000e+00  -1.2263446286632616e-10 9.8371455004085332e-10 0.0000000000000000e+00  -1.4315119150491411e-10 9.3782080828736004e-10 0.0000000000000000e+00  -2.2931831990160602e-10 9.1032932817326345e-10 0.0000000000000000e+00  -3.2630467404678135e-10 8.5919982878888770e-10 0.0000000000000000e+00  -4.1834596375432811e-10 7.8467863640146062e-10 0.0000000000000000e+00  -5.0057527956248381e-10 6.8869387656408606e-10 0.0000000000000000e+00  -5.7043981826026864e-10 5.7396634329538847e-10 0.0000000000000000e+00  -6.2614977386058899e-10 4.4373936568844244e-10 0.0000000000000000e+00  -6.6637321706005392e-10 3.0163367226057391e-10 0.0000000000000000e+00  -6.9017912360192820e-10 1.5152490317699905e-10 0.0000000000000000e+00  -6.9702720741525218e-10 -2.5627423581561565e-12 0.0000000000000000e+00  -6.8676637884271890e-10 -1.5655001591113927e-10 0.0000000000000000e+00  -6.5963597171847687e-10 -3.0638907329175326e-10 0.0000000000000000e+00  -6.1626929151159329e-10 -4.4815004433605231e-10 0.0000000000000000e+00  -5.5770023596250639e-10 -5.7811422397530002e-10 0.0000000000000000e+00  -4.8538153556768263e-10 -6.9287755637001185e-10 0.0000000000000000e+00  -4.0126374112774499e-10 -7.8946256019516831e-10 0.0000000000000000e+00  -3.0816459963573997e-10 -8.6542303701451057e-10 0.0000000000000000e+00  -2.1142737957001459e-10 -9.1882258200133635e-10 0.0000000000000000e+00  -1.2648984819552770e-10 -9.4709311199372498e-10 0.0000000000000000e+00  -1.0190704655738816e-10 -9.1199798360164081e-10 0.0000000000000000e+00  -1.3633360881972629e-10 1.0931131758662952e-09 0.0000000000000000e+00  -1.4819440990553324e-10 1.0462407979032997e-09 0.0000000000000000e+00  -2.3355542291477343e-10 1.0150532676198412e-09 0.0000000000000000e+00  -3.3133824044021956e-10 9.5739355499109535e-10 0.0000000000000000e+00  -4.2434496408162608e-10 8.7374201372719703e-10 0.0000000000000000e+00  -5.0735868331899397e-10 7.6635076735147869e-10 0.0000000000000000e+00  -5.7773662352781628e-10 6.3830530706177840e-10 0.0000000000000000e+00  -6.3368634277616087e-10 4.9323243722292305e-10 0.0000000000000000e+00  -6.7391285327639363e-10 3.3514195581202565e-10 0.0000000000000000e+00  -6.9753568586643691e-10 1.6829658991324955e-10 0.0000000000000000e+00  -7.0405913395573010e-10 -2.8966426331822614e-12 0.0000000000000000e+00  -6.9335808618601851e-10 -1.7397765132006130e-10 0.0000000000000000e+00  -6.6567551099048755e-10 -3.4051491222020994e-10 0.0000000000000000e+00  -6.2163161815797314e-10 -4.9818776731631797e-10 0.0000000000000000e+00  -5.6224423605081371e-10 -6.4287908937432124e-10 0.0000000000000000e+00  -4.8896692850426854e-10 -7.7078442684918776e-10 0.0000000000000000e+00  -4.0379495204033108e-10 -8.7853698744414641e-10 0.0000000000000000e+00  -3.0968831222918243e-10 -9.6333313440833304e-10 0.0000000000000000e+00  -2.1241239723605788e-10 -1.0229407558281128e-09 0.0000000000000000e+00  -1.2880738405543359e-10 -1.0545629426481780e-09 0.0000000000000000e+00  -1.1263394257804634e-10 -1.0198401791206508e-09 0.0000000000000000e+00  -1.5157089952064987e-10 1.2025721289652757e-09 0.0000000000000000e+00  -1.5257642084217572e-10 1.1554478367971162e-09 0.0000000000000000e+00  -2.3582308678595295e-10 1.1206325689333257e-09 0.0000000000000000e+00  -3.3327141447802776e-10 1.0563730308867405e-09 0.0000000000000000e+00  -4.2616001529745918e-10 9.6342478345251845e-10 0.0000000000000000e+00  -5.0892176994206113e-10 8.4441200712715473e-10 0.0000000000000000e+00  -5.7886292494727241e-10 7.0283535360078761e-10 0.0000000000000000e+00  -6.3423901918641550e-10 5.4274497046780790e-10 0.0000000000000000e+00  -6.7384253719738694e-10 3.6855977404129648e-10 0.0000000000000000e+00  -6.9688574985675222e-10 1.8492750328968479e-10 0.0000000000000000e+00  -7.0294471364722404e-10 -3.3821499279542861e-12 0.0000000000000000e+00  -6.9192809672196132e-10 -1.9155798852674604e-10 0.0000000000000000e+00  -6.6406972737848473e-10 -3.7481360514057625e-10 0.0000000000000000e+00  -6.1994574709909321e-10 -5.4845528157174672e-10 0.0000000000000000e+00  -5.6051433370697684e-10 -7.0796675823483300e-10 0.0000000000000000e+00  -4.8718153879642016e-10 -8.4912148524106655e-10 0.0000000000000000e+00  -4.0194343871915692e-10 -9.6812429932953939e-10 0.0000000000000000e+00  -3.0787480400982442e-10 -1.0617677157730861e-09 0.0000000000000000e+00  -2.1117780395308406e-10 -1.1274860541491046e-09 0.0000000000000000e+00  -1.3022731284789673e-10 -1.1622440622883282e-09 0.0000000000000000e+00  -1.2464647635912632e-10 -1.1279134451391138e-09 0.0000000000000000e+00  -1.6839523172888023e-10 1.3103838030486051e-09 0.0000000000000000e+00  -1.5562781396605460e-10 1.2640513494628705e-09 0.0000000000000000e+00  -2.3478198602199343e-10 1.2256923718316105e-09 0.0000000000000000e+00  -3.3010564756248518e-10 1.1547760284534094e-09 0.0000000000000000e+00  -4.2114999611428013e-10 1.0524040426654841e-09 0.0000000000000000e+00  -5.0201006839236994e-10 9.2164097958973915e-10 0.0000000000000000e+00  -5.7000329795687517e-10 7.6646605543573594e-10 0.0000000000000000e+00  -6.2351355841974277e-10 5.9139690313528717e-10 0.0000000000000000e+00  -6.6150188247249645e-10 4.0127628093773693e-10 0.0000000000000000e+00  -6.8334112700685472e-10 2.0112030190367612e-10 0.0000000000000000e+00  -6.8872269474968893e-10 -3.9806439930440966e-12 0.0000000000000000e+00  -6.7760143983203614e-10 -2.0891967197377143e-10 0.0000000000000000e+00  -6.5018150878490614e-10 -4.0860954188498437e-10 0.0000000000000000e+00  -6.0694519748403636e-10 -5.9802168281704154e-10 0.0000000000000000e+00  -5.4872074518913294e-10 -7.7225212544695986e-10 0.0000000000000000e+00  -4.7678839753434600e-10 -9.2663222548650671e-10 0.0000000000000000e+00  -3.9307351720978515e-10 -1.0568905319516625e-09 0.0000000000000000e+00  -3.0071803878062150e-10 -1.1593518274010142e-09 0.0000000000000000e+00  -2.0636638882508693e-10 -1.2310575495734270e-09 0.0000000000000000e+00  -1.3005679640944256e-10 -1.2687104517334180e-09 0.0000000000000000e+00  -1.3796402194072361e-10 -1.2349919092391073e-09 0.0000000000000000e+00  -1.8685935279842135e-10 1.4140204356091174e-09 0.0000000000000000e+00  -1.5654353733651840e-10 1.3699174773381339e-09 0.0000000000000000e+00  -2.2881600803439661e-10 1.3281301912889408e-09 0.0000000000000000e+00  -3.1941620415738732e-10 1.2505257828320762e-09 0.0000000000000000e+00  -4.0609295095952899e-10 1.1386642901319049e-09 0.0000000000000000e+00  -4.826