<?xml version="1.0"?>
<VTKFile type="UnstructuredGrid"  version="0.1"  >
<UnstructuredGrid>
<Piece  NumberOfPoints="651" NumberOfCells="1200">
<Points>
<DataArray  type="Float64"  NumberOfComponents="3"  format="ascii">0 0 0  50000 0 0  100000 0 0  150000 0 0  200000 0 0  250000 0 0  300000 0 0  350000 0 0  400000 0 0  450000 0 0  500000 0 0  550000 0 0  600000 0 0  650000 0 0  700000 0 0  750000 0 0  800000 0 0  850000 0 0  900000 0 0  950000 0 0  1000000 0 0  0 50000 0  50000 50000 0  100000 50000 0  150000 50000 0  200000 50000 0  250000 50000 0  300000 50000 0  350000 50000 0  400000 50000 0  450000 50000 0  500000 50000 0  550000 50000 0  600000 50000 0  650000 50000 0  700000 50000 0  750000 50000 0  800000 50000 0  850000 50000 0  900000 50000 0  950000 50000 0  1000000 50000 0  0 100000 0  50000 100000 0  100000 100000 0  150000 100000 0  200000 100000 0  250000 100000 0  300000 100000 0  350000 100000 0  400000 100000 0  450000 100000 0  500000 100000 0  550000 100000 0  600000 100000 0  650000 100000 0  700000 100000 0  750000 100000 0  800000 100000 0  850000 100000 0  900000 100000 0  950000 100000 0  1000000 100000 0  0 150000 0  50000 150000 0  100000 150000 0  150000 150000 0  200000 150000 0  250000 150000 0  300000 150000 0  350000 150000 0  400000 150000 0  450000 150000 0  500000 150000 0  550000 150000 0  600000 150000 0  650000 150000 0  700000 150000 0  750000 150000 0  800000 150000 0  850000 150000 0  900000 150000 0  950000 150000 0  1000000 150000 0  0 200000 0  50000 200000 0  100000 200000 0  150000 200000 0  200000 200000 0  250000 200000 0  300000 200000 0  350000 200000 0  400000 200000 0  450000 200000 0  500000 200000 0  550000 200000 0  600000 200000 0  650000 200000 0  700000 200000 0  750000 200000 0  800000 200000 0  850000 200000 0  900000 200000 0  950000 200000 0  1000000 200000 0  0 250000 0  50000 250000 0  100000 250000 0  150000 250000 0  200000 250000 0  250000 250000 0  300000 250000 0  350000 250000 0  400000 250000 0  450000 250000 0  500000 250000 0  550000 250000 0  600000 250000 0  650000 250000 0  700000 250000 0  750000 250000 0  800000 250000 0  850000 250000 0  900000 250000 0  950000 250000 0  1000000 250000 0  0 300000 0  50000 300000 0  100000 300000 0  150000 300000 0  200000 300000 0  250000 300000 0  300000 300000 0  350000 300000 0  400000 300000 0  450000 300000 0  500000 300000 0  550000 300000 0  600000 300000 0  650000 300000 0  700000 300000 0  750000 300000 0  800000 300000 0  850000 300000 0  900000 300000 0  950000 300000 0  1000000 300000 0  0 350000 0  50000 350000 0  100000 350000 0  150000 350000 0  200000 350000 0  250000 350000 0  300000 350000 0  350000 350000 0  400000 350000 0  450000 350000 0  500000 350000 0  550000 350000 0  600000 350000 0  650000 350000 0  700000 350000 0  750000 350000 0  800000 350000 0  850000 350000 0  900000 350000 0  950000 350000 0  1000000 350000 0  0 400000 0  50000 400000 0  100000 400000 0  150000 400000 0  200000 400000 0  250000 400000 0  300000 400000 0  350000 400000 0  400000 400000 0  450000 400000 0  500000 400000 0  550000 400000 0  600000 400000 0  650000 400000 0  700000 400000 0  750000 400000 0  800000 400000 0  850000 400000 0  900000 400000 0  950000 400000 0  1000000 400000 0  0 450000 0  50000 450000 0  100000 450000 0  150000 450000 0  200000 450000 0  250000 450000 0  300000 450000 0  350000 450000 0  400000 450000 0  450000 450000 0  500000 450000 0  550000 450000 0  600000 450000 0  650000 450000 0  700000 450000 0  750000 450000 0  800000 450000 0  850000 450000 0  900000 450000 0  950000 450000 0  1000000 450000 0  0 500000 0  50000 500000 0  100000 500000 0  150000 500000 0  200000 500000 0  250000 500000 0  300000 500000 0  350000 500000 0  400000 500000 0  450000 500000 0  500000 500000 0  550000 500000 0  600000 500000 0  650000 500000 0  700000 500000 0  750000 500000 0  800000 500000 0  850000 500000 0  900000 500000 0  950000 500000 0  1000000 500000 0  0 550000 0  50000 550000 0  100000 550000 0  150000 550000 0  200000 550000 0  250000 550000 0  300000 550000 0  350000 550000 0  400000 550000 0  450000 550000 0  500000 550000 0  550000 550000 0  600000 550000 0  650000 550000 0  700000 550000 0  750000 550000 0  800000 550000 0  850000 550000 0  900000 550000 0  950000 550000 0  1000000 550000 0  0 600000 0  50000 600000 0  100000 600000 0  150000 600000 0  200000 600000 0  250000 600000 0  300000 600000 0  350000 600000 0  400000 600000 0  450000 600000 0  500000 600000 0  550000 600000 0  600000 600000 0  650000 600000 0  700000 600000 0  750000 600000 0  800000 600000 0  850000 600000 0  900000 600000 0  950000 600000 0  1000000 600000 0  0 650000 0  50000 650000 0  100000 650000 0  150000 650000 0  200000 650000 0  250000 650000 0  300000 650000 0  350000 650000 0  400000 650000 0  450000 650000 0  500000 650000 0  550000 650000 0  600000 650000 0  650000 650000 0  700000 650000 0  750000 650000 0  800000 650000 0  850000 650000 0  900000 650000 0  950000 650000 0  1000000 650000 0  0 700000 0  50000 700000 0  100000 700000 0  150000 700000 0  200000 700000 0  250000 700000 0  300000 700000 0  350000 700000 0  400000 700000 0  450000 700000 0  500000 700000 0  550000 700000 0  600000 700000 0  650000 700000 0  700000 700000 0  750000 700000 0  800000 700000 0  850000 700000 0  900000 700000 0  950000 700000 0  1000000 700000 0  0 750000 0  50000 750000 0  100000 750000 0  150000 750000 0  200000 750000 0  250000 750000 0  300000 750000 0  350000 750000 0  400000 750000 0  450000 750000 0  500000 750000 0  550000 750000 0  600000 750000 0  650000 750000 0  700000 750000 0  750000 750000 0  800000 750000 0  850000 750000 0  900000 750000 0  950000 750000 0  1000000 750000 0  0 800000 0  50000 800000 0  100000 800000 0  150000 800000 0  200000 800000 0  250000 800000 0  300000 800000 0  350000 800000 0  400000 800000 0  450000 800000 0  500000 800000 0  550000 800000 0  600000 800000 0  650000 800000 0  700000 800000 0  750000 800000 0  800000 800000 0  850000 800000 0  900000 800000 0  950000 800000 0  1000000 800000 0  0 850000 0  50000 850000 0  100000 850000 0  150000 850000 0  200000 850000 0  250000 850000 0  300000 850000 0  350000 850000 0  400000 850000 0  450000 850000 0  500000 850000 0  550000 850000 0  600000 850000 0  650000 850000 0  700000 850000 0  750000 850000 0  800000 850000 0  850000 850000 0  900000 850000 0  950000 850000 0  1000000 850000 0  0 900000 0  50000 900000 0  100000 900000 0  150000 900000 0  200000 900000 0  250000 900000 0  300000 900000 0  350000 900000 0  400000 900000 0  450000 900000 0  500000 900000 0  550000 900000 0  600000 900000 0  650000 900000 0  700000 900000 0  750000 900000 0  800000 900000 0  850000 900000 0  900000 900000 0  950000 900000 0  1000000 900000 0  0 950000 0  50000 950000 0  100000 950000 0  150000 950000 0  200000 950000 0  250000 950000 0  300000 950000 0  350000 950000 0  400000 950000 0  450000 950000 0  500000 950000 0  550000 950000 0  600000 950000 0  650000 950000 0  700000 950000 0  750000 950000 0  800000 950000 0  850000 950000 0  900000 950000 0  950000 950000 0  1000000 950000 0  0 1000000 0  50000 1000000 0  100000 1000000 0  150000 1000000 0  200000 1000000 0  250000 1000000 0  300000 1000000 0  350000 1000000 0  400000 1000000 0  450000 1000000 0  500000 1000000 0  550000 1000000 0  600000 1000000 0  650000 1000000 0  700000 1000000 0  750000 1000000 0  800000 1000000 0  850000 1000000 0  900000 1000000 0  950000 1000000 0  1000000 1000000 0  0 1050000 0  50000 1050000 0  100000 1050000 0  150000 1050000 0  200000 1050000 0  250000 1050000 0  300000 1050000 0  350000 1050000 0  400000 1050000 0  450000 1050000 0  500000 1050000 0  550000 1050000 0  600000 1050000 0  650000 1050000 0  700000 1050000 0  750000 1050000 0  800000 1050000 0  850000 1050000 0  900000 1050000 0  950000 1050000 0  1000000 1050000 0  0 1100000 0  50000 1100000 0  100000 1100000 0  150000 1100000 0  200000 1100000 0  250000 1100000 0  300000 1100000 0  350000 1100000 0  400000 1100000 0  450000 1100000 0  500000 1100000 0  550000 1100000 0  600000 1100000 0  650000 1100000 0  700000 1100000 0  750000 1100000 0  800000 1100000 0  850000 1100000 0  900000 1100000 0  950000 1100000 0  1000000 1100000 0  0 1150000 0  50000 1150000 0  100000 1150000 0  150000 1150000 0  200000 1150000 0  250000 1150000 0  300000 1150000 0  350000 1150000 0  400000 1150000 0  450000 1150000 0  500000 1150000 0  550000 1150000 0  600000 1150000 0  650000 1150000 0  700000 1150000 0  750000 1150000 0  800000 1150000 0  850000 1150000 0  900000 1150000 0  950000 1150000 0  1000000 1150000 0  0 1200000 0  50000 1200000 0  100000 1200000 0  150000 1200000 0  200000 1200000 0  250000 1200000 0  300000 1200000 0  350000 1200000 0  400000 1200000 0  450000 1200000 0  500000 1200000 0  550000 1200000 0  600000 1200000 0  650000 1200000 0  700000 1200000 0  750000 1200000 0  800000 1200000 0  850000 1200000 0  900000 1200000 0  950000 1200000 0  1000000 1200000 0  0 1250000 0  50000 1250000 0  100000 1250000 0  150000 1250000 0  200000 1250000 0  250000 1250000 0  300000 1250000 0  350000 1250000 0  400000 1250000 0  450000 1250000 0  500000 1250000 0  550000 1250000 0  600000 1250000 0  650000 1250000 0  700000 1250000 0  750000 1250000 0  800000 1250000 0  850000 1250000 0  900000 1250000 0  950000 1250000 0  1000000 1250000 0  0 1300000 0  50000 1300000 0  100000 1300000 0  150000 1300000 0  200000 1300000 0  250000 1300000 0  300000 1300000 0  350000 1300000 0  400000 1300000 0  450000 1300000 0  500000 1300000 0  550000 1300000 0  600000 1300000 0  650000 1300000 0  700000 1300000 0  750000 1300000 0  800000 1300000 0  850000 1300000 0  900000 1300000 0  950000 1300000 0  1000000 1300000 0  0 1350000 0  50000 1350000 0  100000 1350000 0  150000 1350000 0  200000 1350000 0  250000 1350000 0  300000 1350000 0  350000 1350000 0  400000 1350000 0  450000 1350000 0  500000 1350000 0  550000 1350000 0  600000 1350000 0  650000 1350000 0  700000 135
[...]
<PointData  Vectors="f_1505"> 
<DataArray  type="Float64"  Name="f_1505"  NumberOfComponents="3" format="ascii">-7.8689448461892878e-11 8.1141746350988764e-11 0.0000000000000000e+00  -1.4676400289479742e-10 6.7642157103779343e-11 0.0000000000000000e+00  -2.6794657909088302e-10 6.1574151747918188e-11 0.0000000000000000e+00  -3.8508957360924814e-10 5.6219546704258553e-11 0.0000000000000000e+00  -4.9235100387575793e-10 5.0131224449685704e-11 0.0000000000000000e+00  -5.8659147415488414e-10 4.3136849548648863e-11 0.0000000000000000e+00  -6.6526251007172095e-10 3.5294892254733548e-11 0.0000000000000000e+00  -7.2630422256206585e-10 2.6745940587938163e-11 0.0000000000000000e+00  -7.6814181647248201e-10 1.7675109751371659e-11 0.0000000000000000e+00  -7.8971269858921378e-10 8.2934714003855811e-12 0.0000000000000000e+00  -7.9048902165528922e-10 -1.1736647083580336e-12 0.0000000000000000e+00  -7.7048854859934783e-10 -1.0495683825424962e-11 0.0000000000000000e+00  -7.3027249169785286e-10 -1.9444498100956074e-11 0.0000000000000000e+00  -6.7093031133379308e-10 -2.7802129864850820e-11 0.0000000000000000e+00  -5.9405415107043810e-10 -3.5369106613327260e-11 0.0000000000000000e+00  -5.0171943270453685e-10 -4.1977151922659211e-11 0.0000000000000000e+00  -3.9655836666156646e-10 -4.7519065905212390e-11 0.0000000000000000e+00  -2.8232448178124506e-10 -5.2031648580928855e-11 0.0000000000000000e+00  -1.6656855399725581e-10 -5.5613996705561781e-11 0.0000000000000000e+00  -7.2017519017987776e-11 -5.3792057566353234e-11 0.0000000000000000e+00  -3.2171020170421544e-11 -3.2949815344434785e-11 0.0000000000000000e+00  -6.6992573783271589e-11 1.4402108034639787e-10 0.0000000000000000e+00  -1.2452118717846129e-10 1.2420499983941874e-10 0.0000000000000000e+00  -2.2210325553384454e-10 1.2572885654997802e-10 0.0000000000000000e+00  -3.2740681716561963e-10 1.1983694823299498e-10 0.0000000000000000e+00  -4.2770126149159256e-10 1.0922356338357954e-10 0.0000000000000000e+00  -5.1818610288828686e-10 9.5193275709906571e-11 0.0000000000000000e+00  -5.9578435622251675e-10 7.8460568834901644e-11 0.0000000000000000e+00  -6.5817396279770296e-10 5.9602829292986938e-11 0.0000000000000000e+00  -7.0359495054104454e-10 3.9179219871530388e-11 0.0000000000000000e+00  -7.3080761830746638e-10 1.7758202196603139e-11 0.0000000000000000e+00  -7.3909158631195178e-10 -4.0803160738252988e-12 0.0000000000000000e+00  -7.2824983526385855e-10 -2.5751794395584504e-11 0.0000000000000000e+00  -6.9860820055042260e-10 -4.6676897127710579e-11 0.0000000000000000e+00  -6.5100851493526589e-10 -6.6291313527319239e-11 0.0000000000000000e+00  -5.8679806464238939e-10 -8.4052743157228122e-11 0.0000000000000000e+00  -5.0782770440372490e-10 -9.9439792879895027e-11 0.0000000000000000e+00  -4.1650451866258547e-10 -1.1192640092790747e-10 0.0000000000000000e+00  -3.1607897656133194e-10 -1.2085374131545986e-10 0.0000000000000000e+00  -2.1191783549798431e-10 -1.2472284650900935e-10 0.0000000000000000e+00  -1.1699431292422685e-10 -1.1769909743079177e-10 0.0000000000000000e+00  -5.4903028174401367e-11 -6.9935313743827918e-11 0.0000000000000000e+00  -6.6195548073920986e-11 2.5540295240387803e-10 0.0000000000000000e+00  -1.2727808357207468e-10 2.1787841520349511e-10 0.0000000000000000e+00  -2.2096102119161804e-10 2.1675468394402812e-10 0.0000000000000000e+00  -3.1878434345268595e-10 2.0734585428206480e-10 0.0000000000000000e+00  -4.1161863112817392e-10 1.8999079302641422e-10 0.0000000000000000e+00  -4.9549208717947129e-10 1.6631756496436202e-10 0.0000000000000000e+00  -5.6755938389851565e-10 1.3761924720349728e-10 0.0000000000000000e+00  -6.2559483897274142e-10 1.0498624562931909e-10 0.0000000000000000e+00  -6.6789260090197569e-10 6.9454810081830898e-11 0.0000000000000000e+00  -6.9325036162846252e-10 3.2060186037118154e-11 0.0000000000000000e+00  -7.0096831179960435e-10 -6.1520811157240697e-12 0.0000000000000000e+00  -6.9085061176327121e-10 -4.4132159016203324e-11 0.0000000000000000e+00  -6.6320415613034939e-10 -8.0838445772743872e-11 0.0000000000000000e+00  -6.1883314909111203e-10 -1.1525003943094815e-10 0.0000000000000000e+00  -5.5903171524313916e-10 -1.4637257937532201e-10 0.0000000000000000e+00  -4.8558397777819840e-10 -1.7322604430417108e-10 0.0000000000000000e+00  -4.0080412767301582e-10 -1.9478782055063324e-10 0.0000000000000000e+00  -3.0773758141384578e-10 -2.0982186998002339e-10 0.0000000000000000e+00  -2.1097991978801314e-10 -2.1640397701254710e-10 0.0000000000000000e+00  -1.2064006388539789e-10 -2.1117841261670924e-10 0.0000000000000000e+00  -5.8596378351600770e-11 -1.5667091795689524e-10 0.0000000000000000e+00  -6.8988846011804648e-11 3.6500793747645873e-10 0.0000000000000000e+00  -1.2629217045092718e-10 3.2325416308021398e-10 0.0000000000000000e+00  -2.1813102574862254e-10 3.1537918436144489e-10 0.0000000000000000e+00  -3.1335755298253974e-10 2.9985584867570468e-10 0.0000000000000000e+00  -4.0270559193985661e-10 2.7465270094680909e-10 0.0000000000000000e+00  -4.8284776315207904e-10 2.4078720803930214e-10 0.0000000000000000e+00  -5.5146110996600263e-10 1.9970403686897913e-10 0.0000000000000000e+00  -6.0659635063212546e-10 1.5287276861068062e-10 0.0000000000000000e+00  -6.4669549145068125e-10 1.0177213123849687e-10 0.0000000000000000e+00  -6.7063839722637002e-10 4.7903445896917789e-11 0.0000000000000000e+00  -6.7776955396004011e-10 -7.2106418447099109e-12 0.0000000000000000e+00  -6.6791011290586719e-10 -6.2039330853989472e-11 0.0000000000000000e+00  -6.4135994333887834e-10 -1.1506228555049531e-10 0.0000000000000000e+00  -5.9889176826446755e-10 -1.6478798881498795e-10 0.0000000000000000e+00  -5.4173856243390847e-10 -2.0976585455991916e-10 0.0000000000000000e+00  -4.7157745911948081e-10 -2.4858449052891126e-10 0.0000000000000000e+00  -3.9052680719725411e-10 -2.7984746717965478e-10 0.0000000000000000e+00  -3.0124469464705601e-10 -3.0212918966504503e-10 0.0000000000000000e+00  -2.0757679935504279e-10 -3.1393379399990883e-10 0.0000000000000000e+00  -1.1887416312996277e-10 -3.1360635354961362e-10 0.0000000000000000e+00  -5.9393609059931365e-11 -2.6216287824022092e-10 0.0000000000000000e+00  -7.3678565107101384e-11 4.7226672008649397e-10 0.0000000000000000e+00  -1.2621970859897931e-10 4.2862737340530066e-10 0.0000000000000000e+00  -2.1656537842994164e-10 4.1498218250690680e-10 0.0000000000000000e+00  -3.1080377839343388e-10 3.9241477418254948e-10 0.0000000000000000e+00  -3.9891175429448497e-10 3.5865156203852274e-10 0.0000000000000000e+00  -4.7750005928655880e-10 3.1433633120760037e-10 0.0000000000000000e+00  -5.4446252382127091e-10 2.6090527470933962e-10 0.0000000000000000e+00  -5.9807423217670676e-10 2.0007215515145591e-10 0.0000000000000000e+00  -6.3693217140461342e-10 1.3368278806873246e-10 0.0000000000000000e+00  -6.6001261773177002e-10 6.3662990970201275e-11 0.0000000000000000e+00  -6.6671520973142677e-10 -8.0132515499904920e-12 0.0000000000000000e+00  -6.5688524880842144e-10 -7.9353551074945695e-11 0.0000000000000000e+00  -6.3081987822584780e-10 -1.4837750763865444e-10 0.0000000000000000e+00  -5.8926140988791192e-10 -2.1314644708939959e-10 0.0000000000000000e+00  -5.3337845953380353e-10 -2.7179064846920131e-10 0.0000000000000000e+00  -4.6473618396777088e-10 -3.2253409031437278e-10 0.0000000000000000e+00  -3.8527334802945699e-10 -3.6372462167323538e-10 0.0000000000000000e+00  -2.9740092455961185e-10 -3.9389825211617525e-10 0.0000000000000000e+00  -2.0480386177127763e-10 -4.1187442540445566e-10 0.0000000000000000e+00  -1.1742851949116391e-10 -4.1648966320059165e-10 0.0000000000000000e+00  -6.2093671410220355e-11 -3.6870036286252285e-10 0.0000000000000000e+00  -7.9938574731720146e-11 5.7851858246785786e-10 0.0000000000000000e+00  -1.2764463393546814e-10 5.3323658624153637e-10 0.0000000000000000e+00  -2.1707651124585126e-10 5.1478300340383145e-10 0.0000000000000000e+00  -3.1130443999443900e-10 4.8510880424664324e-10 0.0000000000000000e+00  -3.9946553155608168e-10 4.4241993756387896e-10 0.0000000000000000e+00  -4.7790525827483039e-10 3.8737708906271438e-10 0.0000000000000000e+00  -5.4451401445651795e-10 3.2149180419959669e-10 0.0000000000000000e+00  -5.9766169946004463e-10 2.4669305340322928e-10 0.0000000000000000e+00  -6.3604747274802747e-10 1.6514877406192871e-10 0.0000000000000000e+00  -6.5872661380843586e-10 7.9171761898759664e-11 0.0000000000000000e+00  -6.6514996976847783e-10 -8.8422187461914132e-12 0.0000000000000000e+00  -6.5518801276464731e-10 -9.6464436728408692e-11 0.0000000000000000e+00  -6.2913854166060248e-10 -1.8127905083004160e-10 0.0000000000000000e+00  -5.8771981601886092e-10 -2.6092790360330680e-10 0.0000000000000000e+00  -5.3204984387629258e-10 -3.3315656866229725e-10 0.0000000000000000e+00  -4.6361555525229903e-10 -3.9586639433824328e-10 0.0000000000000000e+00  -3.8426044062402921e-10 -4.4718378712663230e-10 0.0000000000000000e+00  -2.9634123976221698e-10 -4.8556472273604108e-10 0.0000000000000000e+00  -2.0372639608548053e-10 -5.0987094261238234e-10 0.0000000000000000e+00  -1.1728667340045375e-10 -5.1892716659683223e-10 0.0000000000000000e+00  -6.6464876323513045e-11 -4.7367245707555845e-10 0.0000000000000000e+00  -8.7656506150355001e-11 6.8497566825383640e-10 0.0000000000000000e+00  -1.3049307561380687e-10 6.3801408738725199e-10 0.0000000000000000e+00  -2.1961356950498931e-10 6.1519877112492397e-10 0.0000000000000000e+00  -3.1456551929745589e-10 5.7857747396752092e-10 0.0000000000000000e+00  -4.0360129480162463e-10 5.2679843935489948e-10 0.0000000000000000e+00  -4.8276845923630069e-10 4.6077361137395895e-10 0.0000000000000000e+00  -5.4986341350633734e-10 3.8221638508308861e-10 0.0000000000000000e+00  -6.0326236344837268e-10 2.9330736978992742e-10 0.0000000000000000e+00  -6.4171015145475468e-10 1.9653241508891372e-10 0.0000000000000000e+00  -6.6431223910145304e-10 9.4573405464956423e-11 0.0000000000000000e+00  -6.7055850441588038e-10 -9.7732415351424316e-12 0.0000000000000000e+00  -6.6034146102042076e-10 -1.1366379848916992e-10 0.0000000000000000e+00  -6.3396248064739698e-10 -2.1426806718021311e-10 0.0000000000000000e+00  -5.9212566849214213e-10 -3.0882905824267698e-10 0.0000000000000000e+00  -5.3592033183428001e-10 -3.9472610684266652e-10 0.0000000000000000e+00  -4.6679902097716258e-10 -4.6954707764230201e-10 0.0000000000000000e+00  -3.8658939057141050e-10 -5.3117708148909575e-10 0.0000000000000000e+00  -2.9771466015480796e-10 -5.7790651771879689e-10 0.0000000000000000e+00  -2.0435594611519543e-10 -6.0846618841738641e-10 0.0000000000000000e+00  -1.1840574013354097e-10 -6.2151108978063052e-10 0.0000000000000000e+00  -7.2286617252312352e-11 -5.7768345969178953e-10 0.0000000000000000e+00  -9.6788289780510886e-11 7.9254800357434586e-10 0.0000000000000000e+00  -1.3450035775522838e-10 7.4383785810546954e-10 0.0000000000000000e+00  -2.2373236883266731e-10 7.1686717228451314e-10 0.0000000000000000e+00  -3.1991150581828151e-10 6.7339272063805404e-10 0.0000000000000000e+00  -4.1031887177933614e-10 6.1241212924777047e-10 0.0000000000000000e+00  -4.9070541511305109e-10 5.3516618323173392e-10 0.0000000000000000e+00  -5.5875236482111614e-10 4.4366142770539587e-10 0.0000000000000000e+00  -6.1280374141929201e-10 3.4038318654906826e-10 0.0000000000000000e+00  -6.5161583665976522e-10 2.2815415583198680e-10 0.0000000000000000e+00  -6.7432234365977396e-10 1.1002434584643314e-10 0.0000000000000000e+00  -6.8044089287512183e-10 -1.0820009596154434e-11 0.0000000000000000e+00  -6.6988206879677717e-10 -1.3113497063657220e-10 0.0000000000000000e+00  -6.4295246880923337e-10 -2.4769088450651471e-10 0.0000000000000000e+00  -6.0035025351692037e-10 -3.5734355866607445e-10 0.0000000000000000e+00  -5.4315416769006391e-10 -4.5710992548727148e-10 0.0000000000000000e+00  -4.7281487475793247e-10 -5.4425300510696025e-10 0.0000000000000000e+00  -3.9119246016435522e-10 -6.1637919484298502e-10 0.0000000000000000e+00  -3.0083166049620294e-10 -6.7154200737557388e-10 0.0000000000000000e+00  -2.0627073338570179e-10 -7.0825372203851159e-10 0.0000000000000000e+00  -1.2051251644944180e-10 -7.2496001202406277e-10 0.0000000000000000e+00  -7.9472492683167733e-11 -6.8174137236862958e-10 0.0000000000000000e+00  -1.0732708254181699e-10 9.0176429872829193e-10 0.0000000000000000e+00  -1.3931912523978952e-10 8.5129840925773516e-10 0.0000000000000000e+00  -2.2878547724656828e-10 8.2024497401452709e-10 0.0000000000000000e+00  -3.2640208232291232e-10 7.6991149910330049e-10 0.0000000000000000e+00  -4.1836181788520950e-10 6.9959186173213561e-10 0.0000000000000000e+00  -5.0012057946197198e-10 6.1087746463927878e-10 0.0000000000000000e+00  -5.6925233277508116e-10 5.0612285926556260e-10 0.0000000000000000e+00  -6.2406556335490546e-10 3.8816395247338061e-10 0.0000000000000000e+00  -6.6331987162912196e-10 2.6018565021368657e-10 0.0000000000000000e+00  -6.8617035693254863e-10 1.2561331197114111e-10 0.0000000000000000e+00  -6.9215830955371914e-10 -1.1981783333137245e-11 0.0000000000000000e+00  -6.8121026077484147e-10 -1.4896605700854159e-10 0.0000000000000000e+00  -6.5363747077669005e-10 -2.8172117183427117e-10 0.0000000000000000e+00  -6.1013416674493511e-10 -4.0672145234079350e-10 0.0000000000000000e+00  -5.5177524346585949e-10 -5.2061690659286135e-10 0.0000000000000000e+00  -4.8002251569543266e-10 -6.2032594895207478e-10 0.0000000000000000e+00  -3.9678627562055620e-10 -7.0313830013016306e-10 0.0000000000000000e+00  -3.0474957601567427e-10 -7.6681905782997768e-10 0.0000000000000000e+00  -2.0882780898017898e-10 -8.0961753021324882e-10 0.0000000000000000e+00  -1.2324418335935603e-10 -8.2976510136412217e-10 0.0000000000000000e+00  -8.7991694452660393e-11 -7.8661434578731894e-10 0.0000000000000000e+00  -1.1928886108207422e-10 1.0127204669329967e-09 0.0000000000000000e+00  -1.4454066905834802e-10 9.6061593813739838e-10 0.0000000000000000e+00  -2.3397660881026173e-10 9.2546402618922843e-10 0.0000000000000000e+00  -3.3287144766647780e-10 8.6818281947098578e-10 0.0000000000000000e+00  -4.2620212600417549e-10 7.8834192693863671e-10 0.0000000000000000e+00  -5.0912824818659411e-10 6.8789843407154739e-10 0.0000000000000000e+00  -5.7913895800735349e-10 5.6959134666356484e-10 0.0000000000000000e+00  -6.3452779155642072e-10 4.3664310640875815e-10 0.0000000000000000e+00  -6.7407286470556638e-10 2.9262361423151121e-10 0.0000000000000000e+00  -6.9696127867190761e-10 1.4134066952504738e-10 0.0000000000000000e+00  -7.0276407704153988e-10 -1.3254705101896544e-11 0.0000000000000000e+00  -6.9142485008268846e-10 -1.6715113150271005e-10 0.0000000000000000e+00  -6.6325577253325657e-10 -3.1635332703832841e-10 0.0000000000000000e+00  -6.1893987707205166e-10 -4.5695938153775137e-10 0.0000000000000000e+00  -5.5953966586842670e-10 -5.8524585655218484e-10 0.0000000000000000e+00  -4.8652020178824956e-10 -6.9776525434998567e-10 0.0000000000000000e+00  -4.0183514607915881e-10 -7.9145571751819402e-10 0.0000000000000000e+00  -3.0830098437384108e-10 -8.6375358170230509e-10 0.0000000000000000e+00  -2.1122394221124744e-10 -9.1261623026089706e-10 0.0000000000000000e+00  -1.2617219000310702e-10 -9.3606177865877238e-10 0.0000000000000000e+00  -9.7840423141785116e-11 -8.9268090986327995e-10 0.0000000000000000e+00  -1.3270477339042452e-10 1.1250173704170901e-09 0.0000000000000000e+00  -1.4968758585227655e-10 1.0715666939362014e-09 0.0000000000000000e+00  -2.3835648150661982e-10 1.0322408764885521e-09 0.0000000000000000e+00  -3.3791495004258036e-10 9.6786253379230372e-10 0.0000000000000000e+00  -4.3199797190437451e-10 8.7828440096819727e-10 0.0000000000000000e+00  -5.1547011263000541e-10 7.6585340798086256e-10 0.0000000000000000e+00  -5.8577090316135972e-10 6.3372632811517109e-10 0.0000000000000000e+00  -6.4121984709237375e-10 4.8554218693364798e-10 0.0000000000000000e+00  -6.8065071625447658e-10 3.2527277532132059e-10 0.0000000000000000e+00  -7.0331152428241854e-10 1.5710889995913208e-10 0.0000000000000000e+00  -7.0882080907053440e-10 -1.4631779059045075e-11 0.0000000000000000e+00  -6.9714405495478890e-10 -1.8558049086602471e-10 0.0000000000000000e+00  -6.6858627156360503e-10 -3.5138470882350373e-10 0.0000000000000000e+00  -6.2380027990526255e-10 -5.0777749024819313e-10 0.0000000000000000e+00  -5.6380979654374831e-10 -6.5065877398764914e-10 0.0000000000000000e+00  -4.9005358020497536e-10 -7.7619528708742745e-10 0.0000000000000000e+00  -4.0450021412402511e-10 -8.8093985564328630e-10 0.0000000000000000e+00  -3.1007891305769436e-10 -9.6196134084994465e-10 0.0000000000000000e+00  -2.1249664934561706e-10 -1.0168962102933000e-09 0.0000000000000000e+00  -1.2879677982365627e-10 -1.0435464722412940e-09 0.0000000000000000e+00  -1.0903112583545890e-10 -9.9986676826905371e-10 0.0000000000000000e+00  -1.4761697571224117e-10 1.2376779344655590e-09 0.0000000000000000e+00  -1.5419579938467293e-10 1.1833999227593874e-09 0.0000000000000000e+00  -2.4079256339687807e-10 1.1397845528523098e-09 0.0000000000000000e+00  -3.3984330757050276e-10 1.0681198494180493e-09 0.0000000000000000e+00  -4.3352367051274365e-10 9.6857690770144527e-10 0.0000000000000000e+00  -5.1641349638456359e-10 8.4393303309473409e-10 0.0000000000000000e+00  -5.8595467587964389e-10 6.9780248199470375e-10 0.0000000000000000e+00  -6.4055619985010354e-10 5.3426963305586198e-10 0.0000000000000000e+00  -6.7916858252364887e-10 3.5771792776976723e-10 0.0000000000000000e+00  -7.0115008519146664e-10 1.7270973986597859e-10 0.0000000000000000e+00  -7.0619768192131713e-10 -1.6099400931199024e-11 0.0000000000000000e+00  -6.9430749878573183e-10 -2.0402108255603021e-10 0.0000000000000000e+00  -6.6576343817260180e-10 -3.8638174552015250e-10 0.0000000000000000e+00  -6.2115438767389024e-10 -5.5857383741909507e-10 0.0000000000000000e+00  -5.6141759492001448e-10 -7.1612571269600951e-10 0.0000000000000000e+00  -4.8791160733763768e-10 -8.5480111168180239e-10 0.0000000000000000e+00  -4.0256865459906069e-10 -9.7073137585902070e-10 0.0000000000000000e+00  -3.0839362828021768e-10 -1.0605724837614217e-09 0.0000000000000000e+00  -2.1149803368571615e-10 -1.1216010555706541e-09 0.0000000000000000e+00  -1.3053023767488517e-10 -1.1513918733650635e-09 0.0000000000000000e+00  -1.2158711492435721e-10 -1.1075796629525757e-09 0.0000000000000000e+00  -1.6407687181916117e-10 1.3490392872556423e-09 0.0000000000000000e+00  -1.5739132628218337e-10 1.2947357686378722e-09 0.0000000000000000e+00  -2.3992474607271737e-10 1.2466875647606100e-09 0.0000000000000000e+00  -3.3661527149248962e-10 1.1675246736219259e-09 0.0000000000000000e+00  -4.2807487564087297e-10 1.0578035059398751e-09 0.0000000000000000e+00  -5.0862469727754698e-10 9.2079541899201480e-10 0.0000000000000000e+00  -5.7578489914461890e-10 7.6062542646497045e-10 0.0000000000000000e+00  -6.2814666824806827e-10 5.8185450914716360e-10 0.0000000000000000e+00  -6.6486793208799317e-10 3.8927900404373319e-10 0.0000000000000000e+00  -6.8549131170108868e-10 1.8780337409472214e-10 0.0000000000000000e+00  -6.8983891637495543e-10 -1.7632623107338886e-11 0.0000000000000000e+00  -6.7795047755914489e-10 -2.2208672017036289e-10 0.0000000000000000e+00  -6.5006689572576820e-10 -4.2062752966979377e-10 0.0000000000000000e+00  -6.0666053372444671e-10 -6.0835319362307933e-10 0.0000000000000000e+00  -5.4850772660486377e-10 -7.8043906159722506e-10 0.0000000000000000e+00  -4.7680279536108097e-10 -9.3223211230004444e-10 0.0000000000000000e+00  -3.9336233407324632e-10 -1.0593994146588261e-09 0.0000000000000000e+00  -3.0120916466415127e-10 -1.1581238730170941e-09 0.0000000000000000e+00  -2.0685323555916890e-10 -1.2252646302491988e-09 0.0000000000000000e+00  -1.3067386711535273e-10 -1.2581456594706021e-09 0.0000000000000000e+00  -1.3553932362010348e-10 -1.2146240871467816e-09 0.0000000000000000e+00  -1.8214585692074516e-10 1.4566160702883559e-09 0.0000000000000000e+00  -1.5846334382458335e-10 1.4034378901024140e-09 0.0000000000000000e+00  -2.3411077562070183e-10 1.3507920816574034e-09 0.0000000000000000e+00  -3.2575274771169995e-10 1.2639079343762250e-09 0.0000000000000000e+00  -4.1234983139114976e-10 1.1438345174024534e-09 0.0000000000000000e+00  -4.8801