<?xml version="1.0"?>
<VTKFile type="UnstructuredGrid"  version="0.1"  >
<UnstructuredGrid>
<Piece  NumberOfPoints="651" NumberOfCells="1200">
<Points>
<DataArray  type="Float64"  NumberOfComponents="3"  format="ascii">0 0 0  50000 0 0  100000 0 0  150000 0 0  200000 0 0  250000 0 0  300000 0 0  350000 0 0  400000 0 0  450000 0 0  500000 0 0  550000 0 0  600000 0 0  650000 0 0  700000 0 0  750000 0 0  800000 0 0  850000 0 0  900000 0 0  950000 0 0  1000000 0 0  0 50000 0  50000 50000 0  100000 50000 0  150000 50000 0  200000 50000 0  250000 50000 0  300000 50000 0  350000 50000 0  400000 50000 0  450000 50000 0  500000 50000 0  550000 50000 0  600000 50000 0  650000 50000 0  700000 50000 0  750000 50000 0  800000 50000 0  850000 50000 0  900000 50000 0  950000 50000 0  1000000 50000 0  0 100000 0  50000 100000 0  100000 100000 0  150000 100000 0  200000 100000 0  250000 100000 0  300000 100000 0  350000 100000 0  400000 100000 0  450000 100000 0  500000 100000 0  550000 100000 0  600000 100000 0  650000 100000 0  700000 100000 0  750000 100000 0  800000 100000 0  850000 100000 0  900000 100000 0  950000 100000 0  1000000 100000 0  0 150000 0  50000 150000 0  100000 150000 0  150000 150000 0  200000 150000 0  250000 150000 0  300000 150000 0  350000 150000 0  400000 150000 0  450000 150000 0  500000 150000 0  550000 150000 0  600000 150000 0  650000 150000 0  700000 150000 0  750000 150000 0  800000 150000 0  850000 150000 0  900000 150000 0  950000 150000 0  1000000 150000 0  0 200000 0  50000 200000 0  100000 200000 0  150000 200000 0  200000 200000 0  250000 200000 0  300000 200000 0  350000 200000 0  400000 200000 0  450000 200000 0  500000 200000 0  550000 200000 0  600000 200000 0  650000 200000 0  700000 200000 0  750000 200000 0  800000 200000 0  850000 200000 0  900000 200000 0  950000 200000 0  1000000 200000 0  0 250000 0  50000 250000 0  100000 250000 0  150000 250000 0  200000 250000 0  250000 250000 0  300000 250000 0  350000 250000 0  400000 250000 0  450000 250000 0  500000 250000 0  550000 250000 0  600000 250000 0  650000 250000 0  700000 250000 0  750000 250000 0  800000 250000 0  850000 250000 0  900000 250000 0  950000 250000 0  1000000 250000 0  0 300000 0  50000 300000 0  100000 300000 0  150000 300000 0  200000 300000 0  250000 300000 0  300000 300000 0  350000 300000 0  400000 300000 0  450000 300000 0  500000 300000 0  550000 300000 0  600000 300000 0  650000 300000 0  700000 300000 0  750000 300000 0  800000 300000 0  850000 300000 0  900000 300000 0  950000 300000 0  1000000 300000 0  0 350000 0  50000 350000 0  100000 350000 0  150000 350000 0  200000 350000 0  250000 350000 0  300000 350000 0  350000 350000 0  400000 350000 0  450000 350000 0  500000 350000 0  550000 350000 0  600000 350000 0  650000 350000 0  700000 350000 0  750000 350000 0  800000 350000 0  850000 350000 0  900000 350000 0  950000 350000 0  1000000 350000 0  0 400000 0  50000 400000 0  100000 400000 0  150000 400000 0  200000 400000 0  250000 400000 0  300000 400000 0  350000 400000 0  400000 400000 0  450000 400000 0  500000 400000 0  550000 400000 0  600000 400000 0  650000 400000 0  700000 400000 0  750000 400000 0  800000 400000 0  850000 400000 0  900000 400000 0  950000 400000 0  1000000 400000 0  0 450000 0  50000 450000 0  100000 450000 0  150000 450000 0  200000 450000 0  250000 450000 0  300000 450000 0  350000 450000 0  400000 450000 0  450000 450000 0  500000 450000 0  550000 450000 0  600000 450000 0  650000 450000 0  700000 450000 0  750000 450000 0  800000 450000 0  850000 450000 0  900000 450000 0  950000 450000 0  1000000 450000 0  0 500000 0  50000 500000 0  100000 500000 0  150000 500000 0  200000 500000 0  250000 500000 0  300000 500000 0  350000 500000 0  400000 500000 0  450000 500000 0  500000 500000 0  550000 500000 0  600000 500000 0  650000 500000 0  700000 500000 0  750000 500000 0  800000 500000 0  850000 500000 0  900000 500000 0  950000 500000 0  1000000 500000 0  0 550000 0  50000 550000 0  100000 550000 0  150000 550000 0  200000 550000 0  250000 550000 0  300000 550000 0  350000 550000 0  400000 550000 0  450000 550000 0  500000 550000 0  550000 550000 0  600000 550000 0  650000 550000 0  700000 550000 0  750000 550000 0  800000 550000 0  850000 550000 0  900000 550000 0  950000 550000 0  1000000 550000 0  0 600000 0  50000 600000 0  100000 600000 0  150000 600000 0  200000 600000 0  250000 600000 0  300000 600000 0  350000 600000 0  400000 600000 0  450000 600000 0  500000 600000 0  550000 600000 0  600000 600000 0  650000 600000 0  700000 600000 0  750000 600000 0  800000 600000 0  850000 600000 0  900000 600000 0  950000 600000 0  1000000 600000 0  0 650000 0  50000 650000 0  100000 650000 0  150000 650000 0  200000 650000 0  250000 650000 0  300000 650000 0  350000 650000 0  400000 650000 0  450000 650000 0  500000 650000 0  550000 650000 0  600000 650000 0  650000 650000 0  700000 650000 0  750000 650000 0  800000 650000 0  850000 650000 0  900000 650000 0  950000 650000 0  1000000 650000 0  0 700000 0  50000 700000 0  100000 700000 0  150000 700000 0  200000 700000 0  250000 700000 0  300000 700000 0  350000 700000 0  400000 700000 0  450000 700000 0  500000 700000 0  550000 700000 0  600000 700000 0  650000 700000 0  700000 700000 0  750000 700000 0  800000 700000 0  850000 700000 0  900000 700000 0  950000 700000 0  1000000 700000 0  0 750000 0  50000 750000 0  100000 750000 0  150000 750000 0  200000 750000 0  250000 750000 0  300000 750000 0  350000 750000 0  400000 750000 0  450000 750000 0  500000 750000 0  550000 750000 0  600000 750000 0  650000 750000 0  700000 750000 0  750000 750000 0  800000 750000 0  850000 750000 0  900000 750000 0  950000 750000 0  1000000 750000 0  0 800000 0  50000 800000 0  100000 800000 0  150000 800000 0  200000 800000 0  250000 800000 0  300000 800000 0  350000 800000 0  400000 800000 0  450000 800000 0  500000 800000 0  550000 800000 0  600000 800000 0  650000 800000 0  700000 800000 0  750000 800000 0  800000 800000 0  850000 800000 0  900000 800000 0  950000 800000 0  1000000 800000 0  0 850000 0  50000 850000 0  100000 850000 0  150000 850000 0  200000 850000 0  250000 850000 0  300000 850000 0  350000 850000 0  400000 850000 0  450000 850000 0  500000 850000 0  550000 850000 0  600000 850000 0  650000 850000 0  700000 850000 0  750000 850000 0  800000 850000 0  850000 850000 0  900000 850000 0  950000 850000 0  1000000 850000 0  0 900000 0  50000 900000 0  100000 900000 0  150000 900000 0  200000 900000 0  250000 900000 0  300000 900000 0  350000 900000 0  400000 900000 0  450000 900000 0  500000 900000 0  550000 900000 0  600000 900000 0  650000 900000 0  700000 900000 0  750000 900000 0  800000 900000 0  850000 900000 0  900000 900000 0  950000 900000 0  1000000 900000 0  0 950000 0  50000 950000 0  100000 950000 0  150000 950000 0  200000 950000 0  250000 950000 0  300000 950000 0  350000 950000 0  400000 950000 0  450000 950000 0  500000 950000 0  550000 950000 0  600000 950000 0  650000 950000 0  700000 950000 0  750000 950000 0  800000 950000 0  850000 950000 0  900000 950000 0  950000 950000 0  1000000 950000 0  0 1000000 0  50000 1000000 0  100000 1000000 0  150000 1000000 0  200000 1000000 0  250000 1000000 0  300000 1000000 0  350000 1000000 0  400000 1000000 0  450000 1000000 0  500000 1000000 0  550000 1000000 0  600000 1000000 0  650000 1000000 0  700000 1000000 0  750000 1000000 0  800000 1000000 0  850000 1000000 0  900000 1000000 0  950000 1000000 0  1000000 1000000 0  0 1050000 0  50000 1050000 0  100000 1050000 0  150000 1050000 0  200000 1050000 0  250000 1050000 0  300000 1050000 0  350000 1050000 0  400000 1050000 0  450000 1050000 0  500000 1050000 0  550000 1050000 0  600000 1050000 0  650000 1050000 0  700000 1050000 0  750000 1050000 0  800000 1050000 0  850000 1050000 0  900000 1050000 0  950000 1050000 0  1000000 1050000 0  0 1100000 0  50000 1100000 0  100000 1100000 0  150000 1100000 0  200000 1100000 0  250000 1100000 0  300000 1100000 0  350000 1100000 0  400000 1100000 0  450000 1100000 0  500000 1100000 0  550000 1100000 0  600000 1100000 0  650000 1100000 0  700000 1100000 0  750000 1100000 0  800000 1100000 0  850000 1100000 0  900000 1100000 0  950000 1100000 0  1000000 1100000 0  0 1150000 0  50000 1150000 0  100000 1150000 0  150000 1150000 0  200000 1150000 0  250000 1150000 0  300000 1150000 0  350000 1150000 0  400000 1150000 0  450000 1150000 0  500000 1150000 0  550000 1150000 0  600000 1150000 0  650000 1150000 0  700000 1150000 0  750000 1150000 0  800000 1150000 0  850000 1150000 0  900000 1150000 0  950000 1150000 0  1000000 1150000 0  0 1200000 0  50000 1200000 0  100000 1200000 0  150000 1200000 0  200000 1200000 0  250000 1200000 0  300000 1200000 0  350000 1200000 0  400000 1200000 0  450000 1200000 0  500000 1200000 0  550000 1200000 0  600000 1200000 0  650000 1200000 0  700000 1200000 0  750000 1200000 0  800000 1200000 0  850000 1200000 0  900000 1200000 0  950000 1200000 0  1000000 1200000 0  0 1250000 0  50000 1250000 0  100000 1250000 0  150000 1250000 0  200000 1250000 0  250000 1250000 0  300000 1250000 0  350000 1250000 0  400000 1250000 0  450000 1250000 0  500000 1250000 0  550000 1250000 0  600000 1250000 0  650000 1250000 0  700000 1250000 0  750000 1250000 0  800000 1250000 0  850000 1250000 0  900000 1250000 0  950000 1250000 0  1000000 1250000 0  0 1300000 0  50000 1300000 0  100000 1300000 0  150000 1300000 0  200000 1300000 0  250000 1300000 0  300000 1300000 0  350000 1300000 0  400000 1300000 0  450000 1300000 0  500000 1300000 0  550000 1300000 0  600000 1300000 0  650000 1300000 0  700000 1300000 0  750000 1300000 0  800000 1300000 0  850000 1300000 0  900000 1300000 0  950000 1300000 0  1000000 1300000 0  0 1350000 0  50000 1350000 0  100000 1350000 0  150000 1350000 0  200000 1350000 0  250000 1350000 0  300000 1350000 0  350000 1350000 0  400000 1350000 0  450000 1350000 0  500000 1350000 0  550000 1350000 0  600000 1350000 0  650000 1350000 0  700000 135
[...]
<PointData  Vectors="f_1505"> 
<DataArray  type="Float64"  Name="f_1505"  NumberOfComponents="3" format="ascii">-8.2188671191758048e-11 6.7502255376066449e-11 0.0000000000000000e+00  -1.5067416073370856e-10 5.4545108884685428e-11 0.0000000000000000e+00  -2.7228295466373939e-10 4.9418252202784602e-11 0.0000000000000000e+00  -3.8976343798578406e-10 4.4955882527068617e-11 0.0000000000000000e+00  -4.9733068626347975e-10 3.9668268086606262e-11 0.0000000000000000e+00  -5.9185408824417266e-10 3.3410605491473456e-11 0.0000000000000000e+00  -6.7078820326033452e-10 2.6256153566487341e-11 0.0000000000000000e+00  -7.3207378586205904e-10 1.8351808618383656e-11 0.0000000000000000e+00  -7.7413620946107503e-10 9.8852134369853798e-12 0.0000000000000000e+00  -7.9591344544418145e-10 1.0677621669343096e-12 0.0000000000000000e+00  -7.9687899997310364e-10 -7.8764958441068497e-12 0.0000000000000000e+00  -7.7705304178150242e-10 -1.6719454606495675e-11 0.0000000000000000e+00  -7.3700048673362501e-10 -2.5236563755730714e-11 0.0000000000000000e+00  -6.7781606428964592e-10 -3.3214247745741279e-11 0.0000000000000000e+00  -6.0109906940519088e-10 -4.0458179387435932e-11 0.0000000000000000e+00  -5.0893437064614464e-10 -4.6805924612712846e-11 0.0000000000000000e+00  -4.0396659298760097e-10 -5.2157016371044983e-11 0.0000000000000000e+00  -2.8996538777894480e-10 -5.6556907298863135e-11 0.0000000000000000e+00  -1.7449315878471697e-10 -6.0115830788945111e-11 0.0000000000000000e+00  -8.0230076947835589e-11 -5.8343570663226030e-11 0.0000000000000000e+00  -4.0546755156923535e-11 -3.7684058688006327e-11 0.0000000000000000e+00  -6.9853477145182909e-11 1.3051429675615384e-10 0.0000000000000000e+00  -1.2369021506161321e-10 1.2020105642520542e-10 0.0000000000000000e+00  -2.1868002057244003e-10 1.2471459921403329e-10 0.0000000000000000e+00  -3.2557785749311615e-10 1.1858326292413957e-10 0.0000000000000000e+00  -4.2753826801074349e-10 1.0782760146992018e-10 0.0000000000000000e+00  -5.1917298905290090e-10 9.3738180164516880e-11 0.0000000000000000e+00  -5.9758811521026826e-10 7.6994601258370572e-11 0.0000000000000000e+00  -6.6057205564142550e-10 5.8153386102383806e-11 0.0000000000000000e+00  -7.0641988812748359e-10 3.7759504999598978e-11 0.0000000000000000e+00  -7.3392734174163117e-10 1.6373101748180312e-11 0.0000000000000000e+00  -7.4239842593700771e-10 -5.4308931851570561e-12 0.0000000000000000e+00  -7.3165277062260446e-10 -2.7071542851403900e-11 0.0000000000000000e+00  -7.0202690040683632e-10 -4.7973051784364943e-11 0.0000000000000000e+00  -6.5436769373296864e-10 -6.7575888333961615e-11 0.0000000000000000e+00  -5.9002048880842948e-10 -8.5345861890949882e-11 0.0000000000000000e+00  -5.1082345536344557e-10 -1.0077739036766053e-10 0.0000000000000000e+00  -4.1915402445853671e-10 -1.1337758685624434e-10 0.0000000000000000e+00  -3.1822329841914295e-10 -1.2255369074875953e-10 0.0000000000000000e+00  -2.1345329545022277e-10 -1.2691913997396504e-10 0.0000000000000000e+00  -1.1830716080335051e-10 -1.2120142505998545e-10 0.0000000000000000e+00  -6.3166280258706228e-11 -7.4404108063306203e-11 0.0000000000000000e+00  -6.8065256357293330e-11 2.4244331127918012e-10 0.0000000000000000e+00  -1.2615202110869577e-10 2.1538983953482795e-10 0.0000000000000000e+00  -2.1636338671065803e-10 2.1920639828200393e-10 0.0000000000000000e+00  -3.1398875869959419e-10 2.0980215346612869e-10 0.0000000000000000e+00  -4.0788205011994943e-10 1.9193592602650121e-10 0.0000000000000000e+00  -4.9302534868505318e-10 1.6777308141099357e-10 0.0000000000000000e+00  -5.6619783172009936e-10 1.3867097805913716e-10 0.0000000000000000e+00  -6.2512121634326505e-10 1.0571377561785353e-10 0.0000000000000000e+00  -6.6810876306786725e-10 6.9917685011999887e-11 0.0000000000000000e+00  -6.9398534561127680e-10 3.2300104445066987e-11 0.0000000000000000e+00  -7.0207585990825428e-10 -6.1068174046025898e-12 0.0000000000000000e+00  -6.9220439257865963e-10 -4.4263847535194854e-11 0.0000000000000000e+00  -6.6469215135815154e-10 -8.1139354622241852e-11 0.0000000000000000e+00  -6.2035143359407794e-10 -1.1572427543074068e-10 0.0000000000000000e+00  -5.6047743437827571e-10 -1.4704148696228059e-10 0.0000000000000000e+00  -4.8684799005553543e-10 -1.7413912434045758e-10 0.0000000000000000e+00  -4.0176810931846734e-10 -1.9604098734538385e-10 0.0000000000000000e+00  -3.0829617541694042e-10 -2.1157882977318559e-10 0.0000000000000000e+00  -2.1116932746223407e-10 -2.1890628636532050e-10 0.0000000000000000e+00  -1.2131524772921015e-10 -2.1451878635598822e-10 0.0000000000000000e+00  -6.6842866102803440e-11 -1.6052418340083931e-10 0.0000000000000000e+00  -6.9886225449320388e-11 3.5271296007423084e-10 0.0000000000000000e+00  -1.2607962280486472e-10 3.1867293721233972e-10 0.0000000000000000e+00  -2.1503679059274673e-10 3.1730970913464347e-10 0.0000000000000000e+00  -3.0908287659734803e-10 3.0316794928073013e-10 0.0000000000000000e+00  -3.9842042172358933e-10 2.7786754923069756e-10 0.0000000000000000e+00  -4.7916182411584276e-10 2.4352445324741836e-10 0.0000000000000000e+00  -5.4855213979150753e-10 2.0190716267971187e-10 0.0000000000000000e+00  -6.0443520417124762e-10 1.5457933944347403e-10 0.0000000000000000e+00  -6.4517419195629105e-10 1.0304041393641430e-10 0.0000000000000000e+00  -6.6962710149966925e-10 4.8788419245970510e-11 0.0000000000000000e+00  -6.7713891005281445e-10 -6.6641803706055818e-12 0.0000000000000000e+00  -6.6753908378571345e-10 -6.1798636712714477e-11 0.0000000000000000e+00  -6.4113746022225276e-10 -1.1510803769205326e-10 0.0000000000000000e+00  -5.9871584037786019e-10 -1.6511696768721194e-10 0.0000000000000000e+00  -5.4151519460820467e-10 -2.1039580301157345e-10 0.0000000000000000e+00  -4.7122258050062942e-10 -2.4956094948942836e-10 0.0000000000000000e+00  -3.8997819760615314e-10 -2.8124878980238616e-10 0.0000000000000000e+00  -3.0050261635932716e-10 -3.0405584393278737e-10 0.0000000000000000e+00  -2.0685356735696399e-10 -3.1644574453445029e-10 0.0000000000000000e+00  -1.1919940417995863e-10 -3.1639866235094924e-10 0.0000000000000000e+00  -6.7529949239480679e-11 -2.6529283934592115e-10 0.0000000000000000e+00  -7.3647118872304326e-11 4.6071656247633325e-10 0.0000000000000000e+00  -1.2645862061298788e-10 4.2254652863943405e-10 0.0000000000000000e+00  -2.1473759552408810e-10 4.1550912165775220e-10 0.0000000000000000e+00  -3.0772430151495795e-10 3.9531945843739064e-10 0.0000000000000000e+00  -3.9523893599013419e-10 3.6215186295840339e-10 0.0000000000000000e+00  -4.7381040877329106e-10 3.1766846979318712e-10 0.0000000000000000e+00  -5.4108022363146196e-10 2.6378172506760658e-10 0.0000000000000000e+00  -5.9512269683817815e-10 2.0241333648611400e-10 0.0000000000000000e+00  -6.3441663031373963e-10 1.3549451446903886e-10 0.0000000000000000e+00  -6.5787856621531312e-10 6.4981785804962975e-11 0.0000000000000000e+00  -6.6488263240107176e-10 -7.1443509686605953e-12 0.0000000000000000e+00  -6.5526708067310093e-10 -7.8896030621014636e-11 0.0000000000000000e+00  -6.2933178542104602e-10 -1.4830312157720478e-10 0.0000000000000000e+00  -5.8782766326151137e-10 -2.1344107544964654e-10 0.0000000000000000e+00  -5.3193747845587379e-10 -2.7245717801933464e-10 0.0000000000000000e+00  -4.6324944312360880e-10 -3.2359276208813444e-10 0.0000000000000000e+00  -3.8374288818610677e-10 -3.6520516686943996e-10 0.0000000000000000e+00  -2.9590767934237458e-10 -3.9581101013509628e-10 0.0000000000000000e+00  -2.0363065769274604e-10 -4.1414068007930900e-10 0.0000000000000000e+00  -1.1754968634987195e-10 -4.1865998121021476e-10 0.0000000000000000e+00  -7.0052471907060130e-11 -3.7107599579429912e-10 0.0000000000000000e+00  -7.9004971874643905e-11 5.6779073704766165e-10 0.0000000000000000e+00  -1.2811391337212937e-10 5.2645955734093090e-10 0.0000000000000000e+00  -2.1616467834422607e-10 5.1406280518347576e-10 0.0000000000000000e+00  -3.0936439517923369e-10 4.8717665533658233e-10 0.0000000000000000e+00  -3.9674889863422680e-10 4.4561707873458207e-10 0.0000000000000000e+00  -4.7479693387450037e-10 3.9078041736458487e-10 0.0000000000000000e+00  -5.4132179317093666e-10 3.2463671036880184e-10 0.0000000000000000e+00  -5.9456969077599872e-10 2.4937280978561344e-10 0.0000000000000000e+00  -6.3313761375878568e-10 1.6729250490866726e-10 0.0000000000000000e+00  -6.5601359307820371e-10 8.0775394799373910e-11 0.0000000000000000e+00  -6.6261046879583293e-10 -7.7533103378944092e-12 0.0000000000000000e+00  -6.5278133201538123e-10 -9.5855345205079464e-11 0.0000000000000000e+00  -6.2682065768865642e-10 -1.8111598694548565e-10 0.0000000000000000e+00  -5.8545382300508537e-10 -2.6118363994979050e-10 0.0000000000000000e+00  -5.2981560171657098e-10 -3.3381185796858894e-10 0.0000000000000000e+00  -4.6142109751859711e-10 -3.9690600278119488e-10 0.0000000000000000e+00  -3.8215773692036741e-10 -4.4858298611703145e-10 0.0000000000000000e+00  -2.9445379545236848e-10 -4.8725919295195443e-10 0.0000000000000000e+00  -2.0234710293938826e-10 -5.1170271448069632e-10 0.0000000000000000e+00  -1.1729176137324816e-10 -5.2036626601263817e-10 0.0000000000000000e+00  -7.4182770501624740e-11 -4.7528204530634856e-10 0.0000000000000000e+00  -8.5845103134574650e-11 6.7515139456153368e-10 0.0000000000000000e+00  -1.3108525490930726e-10 6.3103960167527669e-10 0.0000000000000000e+00  -2.1937684389844343e-10 6.1361610500058245e-10 0.0000000000000000e+00  -3.1358301041947987e-10 5.7979542724215524e-10 0.0000000000000000e+00  -4.0186225441806816e-10 5.2942519295858639e-10 0.0000000000000000e+00  -4.8046432919795262e-10 4.6389894876075605e-10 0.0000000000000000e+00  -5.4721579528670316e-10 3.8529576558855985e-10 0.0000000000000000e+00  -6.0044683197321751e-10 2.9604514433342887e-10 0.0000000000000000e+00  -6.3883965125394411e-10 1.9878851986042637e-10 0.0000000000000000e+00  -6.6144680818401697e-10 9.6298692615771550e-11 0.0000000000000000e+00  -6.6772219640970374e-10 -8.5781414924164721e-12 0.0000000000000000e+00  -6.5753863957097991e-10 -1.1297328200204786e-10 0.0000000000000000e+00  -6.3119151029943894e-10 -2.1404574131261600e-10 0.0000000000000000e+00  -5.8939047189549481e-10 -3.0903475919182415e-10 0.0000000000000000e+00  -5.3324098238295228e-10 -3.9531710578811583e-10 0.0000000000000000e+00  -4.6422236934812087e-10 -4.7047301315356797e-10 0.0000000000000000e+00  -3.8420054459698098e-10 -5.3236675615592722e-10 0.0000000000000000e+00  -2.9565534352727671e-10 -5.7924363321065047e-10 0.0000000000000000e+00  -2.0290784509732554e-10 -6.0974939675652473e-10 0.0000000000000000e+00  -1.1834272099327767e-10 -6.2215459996540088e-10 0.0000000000000000e+00  -7.9706254961834176e-11 -5.7852402289563249e-10 0.0000000000000000e+00  -9.4130551011151122e-11 7.8371428427487304e-10 0.0000000000000000e+00  -1.3516305072701681e-10 7.3700261935762087e-10 0.0000000000000000e+00  -2.2401705001600805e-10 7.1476834299956902e-10 0.0000000000000000e+00  -3.1971820100884127e-10 6.7390154143399323e-10 0.0000000000000000e+00  -4.0947348774918331e-10 6.1440153048436859e-10 0.0000000000000000e+00  -4.8924828414221138e-10 5.3782248278843039e-10 0.0000000000000000e+00  -5.5680650731891390e-10 4.4643921035692120e-10 0.0000000000000000e+00  -6.1050201535406100e-10 3.4294768958448457e-10 0.0000000000000000e+00  -6.4906864640106144e-10 2.3032104214733170e-10 0.0000000000000000e+00  -6.7161033376424931e-10 1.1170906456534249e-10 0.0000000000000000e+00  -6.7761983084984883e-10 -9.6394569637118532e-12 0.0000000000000000e+00  -6.6699224558517317e-10 -1.3044307910442746e-10 0.0000000000000000e+00  -6.4002899274130122e-10 -2.4745010619643658e-10 0.0000000000000000e+00  -5.9743294920569049e-10 -3.5750236235249507e-10 0.0000000000000000e+00  -5.4029677080369020e-10 -4.5760467574152269e-10 0.0000000000000000e+00  -4.7009331728626689e-10 -5.4500396760746278e-10 0.0000000000000000e+00  -3.8871228356396538e-10 -6.1728042470240988e-10 0.0000000000000000e+00  -2.9874058969739524e-10 -6.7244395196074978e-10 0.0000000000000000e+00  -2.0483384555264308e-10 -7.0893260132602714e-10 0.0000000000000000e+00  -1.2040546361976042e-10 -7.2478803492104610e-10 0.0000000000000000e+00  -8.6543988890815883e-11 -6.8181705307597887e-10 0.0000000000000000e+00  -1.0386694355815322e-10 8.9401286353633962e-10 0.0000000000000000e+00  -1.4002895946953499e-10 8.4485514400733705e-10 0.0000000000000000e+00  -2.2949457003438201e-10 8.1790708942762181e-10 0.0000000000000000e+00  -3.2686531020900721e-10 7.6988696601695925e-10 0.0000000000000000e+00  -4.1830268628835791e-10 7.0097808882514272e-10 0.0000000000000000e+00  -4.9947151678475711e-10 6.1298534453208535e-10 0.0000000000000000e+00  -5.6804982791540930e-10 5.0845406077259106e-10 0.0000000000000000e+00  -6.2239001977786907e-10 3.9038634742319545e-10 0.0000000000000000e+00  -6.6126082791915120e-10 2.6209892725008266e-10 0.0000000000000000e+00  -6.8381061867457419e-10 1.2711384771046175e-10 0.0000000000000000e+00  -6.8957016586630723e-10 -1.0930494025186199e-11 0.0000000000000000e+00  -6.7845827928130096e-10 -1.4835540938669502e-10 0.0000000000000000e+00  -6.5078430423537642e-10 -2.8151213649041681e-10 0.0000000000000000e+00  -6.0724734839493629e-10 -4.0685286367920312e-10 0.0000000000000000e+00  -5.4893379878331157e-10 -5.2100822922269674e-10 0.0000000000000000e+00  -4.7732252331569581e-10 -6.2087518446346717e-10 0.0000000000000000e+00  -3.9434521174941405e-10 -7.0371554789399036e-10 0.0000000000000000e+00  -3.0271568275288283e-10 -7.6725488164312474e-10 0.0000000000000000e+00  -2.0744978747131346e-10 -8.0967771119972360e-10 0.0000000000000000e+00  -1.2310527684243092e-10 -8.2878721044296832e-10 0.0000000000000000e+00  -9.4673060628231452e-11 -7.8593523108929639e-10 0.0000000000000000e+00  -1.1508639007122861e-10 1.0061451379856286e-09 0.0000000000000000e+00  -1.4528866445524681e-10 9.5476435625788547e-10 0.0000000000000000e+00  -2.3504536300213001e-10 9.2310665989922918e-10 0.0000000000000000e+00  -3.3388804379214487e-10 8.6779187776597155e-10 0.0000000000000000e+00  -4.2682399119864062e-10 7.8920117968315158e-10 0.0000000000000000e+00  -5.0921366417011640e-10 6.8944579914706836e-10 0.0000000000000000e+00  -5.7865647520721573e-10 5.7139990973227361e-10 0.0000000000000000e+00  -6.3350841484318846e-10 4.3841211791462796e-10 0.0000000000000000e+00  -6.7257842279551350e-10 2.9416093421564555e-10 0.0000000000000000e+00  -6.9506567594531899e-10 1.4254059855187560e-10 0.0000000000000000e+00  -7.0054442085817940e-10 -1.2432728537633552e-11 0.0000000000000000e+00  -6.8895917977421819e-10 -1.6669997566432550e-10 0.0000000000000000e+00  -6.6062463119369957e-10 -3.1623073736605261e-10 0.0000000000000000e+00  -6.1622970954555845e-10 -4.5709571315266663e-10 0.0000000000000000e+00  -5.5684658980633272e-10 -5.8554745541360204e-10 0.0000000000000000e+00  -4.8395306770790547e-10 -6.9811417126088397e-10 0.0000000000000000e+00  -3.9951776919310845e-10 -7.9170642692415833e-10 0.0000000000000000e+00  -3.0637978709846121e-10 -8.6372550046106291e-10 0.0000000000000000e+00  -2.0993296397222997e-10 -9.1207098930596434e-10 0.0000000000000000e+00  -1.2600750954914563e-10 -9.3430624719719413e-10 0.0000000000000000e+00  -1.0409760659103702e-10 -8.9126194273761745e-10 0.0000000000000000e+00  -1.2783867663581088e-10 1.1197102230499303e-09 0.0000000000000000e+00  -1.5047117185518521e-10 1.0664685207144811e-09 0.0000000000000000e+00  -2.3973578579970755e-10 1.0300378320749174e-09 0.0000000000000000e+00  -3.3939995555175645e-10 9.6724979587773516e-10 0.0000000000000000e+00  -4.3320207326118095e-10 8.7870389855203717e-10 0.0000000000000000e+00  -5.1620176413564397e-10 7.6686379300507045e-10 0.0000000000000000e+00  -5.8594854581800796e-10 6.3498237081239447e-10 0.0000000000000000e+00  -6.4083332322739442e-10 4.8679199438630005e-10 0.0000000000000000e+00  -6.7973420367810500e-10 3.2635009567586785e-10 0.0000000000000000e+00  -7.0192490082425519e-10 1.5792039217094238e-10 0.0000000000000000e+00  -7.0703835524510797e-10 -1.4120617514472518e-11 0.0000000000000000e+00  -6.9504883695471038e-10 -1.8535798800338795e-10 0.0000000000000000e+00  -6.6626836160394700e-10 -3.5140286388486328e-10 0.0000000000000000e+00  -6.2135716320881183e-10 -5.0795856965150954e-10 0.0000000000000000e+00  -5.6134760384797782e-10 -6.5089883360270022e-10 0.0000000000000000e+00  -4.8768812000991293e-10 -7.7636515758127046e-10 0.0000000000000000e+00  -4.0235781731134584e-10 -8.8088411082777884e-10 0.0000000000000000e+00  -3.0830308181845238e-10 -9.6149344235540297e-10 0.0000000000000000e+00  -2.1130831008971393e-10 -1.0157763738432477e-09 0.0000000000000000e+00  -1.2860905938699034e-10 -1.0410532982713975e-09 0.0000000000000000e+00  -1.1483781339176168e-10 -9.9772681268812718e-10 0.0000000000000000e+00  -1.4218592675232763e-10 1.2337244821703146e-09 0.0000000000000000e+00  -1.5501427965587997e-10 1.1791859220035671e-09 0.0000000000000000e+00  -2.4243843876320722e-10 1.1378720256929620e-09 0.0000000000000000e+00  -3.4172008692179032e-10 1.0674045633073029e-09 0.0000000000000000e+00  -4.3521521928571670e-10 9.6863986955458445e-10 0.0000000000000000e+00  -5.1769573404316245e-10 8.4444578999428922e-10 0.0000000000000000e+00  -5.8671088756649716e-10 6.9850443031479692e-10 0.0000000000000000e+00  -6.4074451525015684e-10 5.3496725453484350e-10 0.0000000000000000e+00  -6.7879907488516643e-10 3.5828252889524645e-10 0.0000000000000000e+00  -7.0026746925305725e-10 1.7307112197179864e-10 0.0000000000000000e+00  -7.0486923799209371e-10 -1.5961314849583253e-11 0.0000000000000000e+00  -6.9261552814673118e-10 -2.0408460627470877e-10 0.0000000000000000e+00  -6.6380114767443194e-10 -3.8659045869684440e-10 0.0000000000000000e+00  -6.1902400539460739e-10 -5.5884170488767275e-10 0.0000000000000000e+00  -5.5922961544664256e-10 -7.1634027565390076e-10 0.0000000000000000e+00  -4.8578432746408293e-10 -8.5482509710857510e-10 0.0000000000000000e+00  -4.0062814593113033e-10 -9.7040297954282360e-10 0.0000000000000000e+00  -3.0677970701046944e-10 -1.0597018928316770e-09 0.0000000000000000e+00  -2.1041937248390684e-10 -1.1199476904945189e-09 0.0000000000000000e+00  -1.3032033237841893e-10 -1.1482080145156662e-09 0.0000000000000000e+00  -1.2692435650019267e-10 -1.1047407342607478e-09 0.0000000000000000e+00  -1.5819946817583503e-10 1.3465128896852447e-09 0.0000000000000000e+00  -1.5824303484327604e-10 1.2915079562514204e-09 0.0000000000000000e+00  -2.4179178551850751e-10 1.2451693418949009e-09 0.0000000000000000e+00  -3.3880835437085310e-10 1.1668011139914020e-09 0.0000000000000000e+00  -4.3015926329750542e-10 1.0575824379594086e-09 0.0000000000000000e+00  -5.1035643043638823e-10 9.2085429498338327e-10 0.0000000000000000e+00  -5.7702412067873570e-10 7.6078771705683792e-10 0.0000000000000000e+00  -6.2882874747987433e-10 5.8198946598568379e-10 0.0000000000000000e+00  -6.6498378701269754e-10 3.8930238295806042e-10 0.0000000000000000e+00  -6.8507171634775513e-10 1.8767534188905577e-10 0.0000000000000000e+00  -6.8894252556631957e-10 -1.7911583711519772e-11 0.0000000000000000e+00  -6.7665535936699345e-10 -2.2248056819633603e-10 0.0000000000000000e+00  -6.4846497484090720e-10 -4.2106906539407551e-10 0.0000000000000000e+00  -6.0485414662685095e-10 -6.0874755589096178e-10 0.0000000000000000e+00  -5.4660747735020340e-10 -7.8066621194520261e-10 0.0000000000000000e+00  -4.7492608935040409e-10 -9.3214848376520350e-10 0.0000000000000000e+00  -3.9163284081362654e-10 -1.0588387111064253e-09 0.0000000000000000e+00  -2.9976221710619132e-10 -1.1568940310074951e-09 0.0000000000000000e+00  -2.0588537300588605e-10 -1.2231237268001176e-09 0.0000000000000000e+00  -1.3044165357772032e-10 -1.2543216503916654e-09 0.0000000000000000e+00  -1.4039501863667544e-10 -1.2111107503409905e-09 0.0000000000000000e+00  -1.7595895377935824e-10 1.4555718547744866e-09 0.0000000000000000e+00  -1.5934373610384345e-10 1.4012690273485661e-09 0.0000000000000000e+00  -2.3614820732475634e-10 1.3497426825730711e-09 0.0000000000000000e+00  -3.2818326016133795e-10 1.2632468752331024e-09 0.0000000000000000e+00  -4.1472961099491112e-10 1.1433887156787711e-09 0.0000000000000000e+00  -4.9008