<?xml version="1.0"?>
<VTKFile type="UnstructuredGrid"  version="0.1"  >
<UnstructuredGrid>
<Piece  NumberOfPoints="651" NumberOfCells="1200">
<Points>
<DataArray  type="Float64"  NumberOfComponents="3"  format="ascii">0 0 0  50000 0 0  100000 0 0  150000 0 0  200000 0 0  250000 0 0  300000 0 0  350000 0 0  400000 0 0  450000 0 0  500000 0 0  550000 0 0  600000 0 0  650000 0 0  700000 0 0  750000 0 0  800000 0 0  850000 0 0  900000 0 0  950000 0 0  1000000 0 0  0 50000 0  50000 50000 0  100000 50000 0  150000 50000 0  200000 50000 0  250000 50000 0  300000 50000 0  350000 50000 0  400000 50000 0  450000 50000 0  500000 50000 0  550000 50000 0  600000 50000 0  650000 50000 0  700000 50000 0  750000 50000 0  800000 50000 0  850000 50000 0  900000 50000 0  950000 50000 0  1000000 50000 0  0 100000 0  50000 100000 0  100000 100000 0  150000 100000 0  200000 100000 0  250000 100000 0  300000 100000 0  350000 100000 0  400000 100000 0  450000 100000 0  500000 100000 0  550000 100000 0  600000 100000 0  650000 100000 0  700000 100000 0  750000 100000 0  800000 100000 0  850000 100000 0  900000 100000 0  950000 100000 0  1000000 100000 0  0 150000 0  50000 150000 0  100000 150000 0  150000 150000 0  200000 150000 0  250000 150000 0  300000 150000 0  350000 150000 0  400000 150000 0  450000 150000 0  500000 150000 0  550000 150000 0  600000 150000 0  650000 150000 0  700000 150000 0  750000 150000 0  800000 150000 0  850000 150000 0  900000 150000 0  950000 150000 0  1000000 150000 0  0 200000 0  50000 200000 0  100000 200000 0  150000 200000 0  200000 200000 0  250000 200000 0  300000 200000 0  350000 200000 0  400000 200000 0  450000 200000 0  500000 200000 0  550000 200000 0  600000 200000 0  650000 200000 0  700000 200000 0  750000 200000 0  800000 200000 0  850000 200000 0  900000 200000 0  950000 200000 0  1000000 200000 0  0 250000 0  50000 250000 0  100000 250000 0  150000 250000 0  200000 250000 0  250000 250000 0  300000 250000 0  350000 250000 0  400000 250000 0  450000 250000 0  500000 250000 0  550000 250000 0  600000 250000 0  650000 250000 0  700000 250000 0  750000 250000 0  800000 250000 0  850000 250000 0  900000 250000 0  950000 250000 0  1000000 250000 0  0 300000 0  50000 300000 0  100000 300000 0  150000 300000 0  200000 300000 0  250000 300000 0  300000 300000 0  350000 300000 0  400000 300000 0  450000 300000 0  500000 300000 0  550000 300000 0  600000 300000 0  650000 300000 0  700000 300000 0  750000 300000 0  800000 300000 0  850000 300000 0  900000 300000 0  950000 300000 0  1000000 300000 0  0 350000 0  50000 350000 0  100000 350000 0  150000 350000 0  200000 350000 0  250000 350000 0  300000 350000 0  350000 350000 0  400000 350000 0  450000 350000 0  500000 350000 0  550000 350000 0  600000 350000 0  650000 350000 0  700000 350000 0  750000 350000 0  800000 350000 0  850000 350000 0  900000 350000 0  950000 350000 0  1000000 350000 0  0 400000 0  50000 400000 0  100000 400000 0  150000 400000 0  200000 400000 0  250000 400000 0  300000 400000 0  350000 400000 0  400000 400000 0  450000 400000 0  500000 400000 0  550000 400000 0  600000 400000 0  650000 400000 0  700000 400000 0  750000 400000 0  800000 400000 0  850000 400000 0  900000 400000 0  950000 400000 0  1000000 400000 0  0 450000 0  50000 450000 0  100000 450000 0  150000 450000 0  200000 450000 0  250000 450000 0  300000 450000 0  350000 450000 0  400000 450000 0  450000 450000 0  500000 450000 0  550000 450000 0  600000 450000 0  650000 450000 0  700000 450000 0  750000 450000 0  800000 450000 0  850000 450000 0  900000 450000 0  950000 450000 0  1000000 450000 0  0 500000 0  50000 500000 0  100000 500000 0  150000 500000 0  200000 500000 0  250000 500000 0  300000 500000 0  350000 500000 0  400000 500000 0  450000 500000 0  500000 500000 0  550000 500000 0  600000 500000 0  650000 500000 0  700000 500000 0  750000 500000 0  800000 500000 0  850000 500000 0  900000 500000 0  950000 500000 0  1000000 500000 0  0 550000 0  50000 550000 0  100000 550000 0  150000 550000 0  200000 550000 0  250000 550000 0  300000 550000 0  350000 550000 0  400000 550000 0  450000 550000 0  500000 550000 0  550000 550000 0  600000 550000 0  650000 550000 0  700000 550000 0  750000 550000 0  800000 550000 0  850000 550000 0  900000 550000 0  950000 550000 0  1000000 550000 0  0 600000 0  50000 600000 0  100000 600000 0  150000 600000 0  200000 600000 0  250000 600000 0  300000 600000 0  350000 600000 0  400000 600000 0  450000 600000 0  500000 600000 0  550000 600000 0  600000 600000 0  650000 600000 0  700000 600000 0  750000 600000 0  800000 600000 0  850000 600000 0  900000 600000 0  950000 600000 0  1000000 600000 0  0 650000 0  50000 650000 0  100000 650000 0  150000 650000 0  200000 650000 0  250000 650000 0  300000 650000 0  350000 650000 0  400000 650000 0  450000 650000 0  500000 650000 0  550000 650000 0  600000 650000 0  650000 650000 0  700000 650000 0  750000 650000 0  800000 650000 0  850000 650000 0  900000 650000 0  950000 650000 0  1000000 650000 0  0 700000 0  50000 700000 0  100000 700000 0  150000 700000 0  200000 700000 0  250000 700000 0  300000 700000 0  350000 700000 0  400000 700000 0  450000 700000 0  500000 700000 0  550000 700000 0  600000 700000 0  650000 700000 0  700000 700000 0  750000 700000 0  800000 700000 0  850000 700000 0  900000 700000 0  950000 700000 0  1000000 700000 0  0 750000 0  50000 750000 0  100000 750000 0  150000 750000 0  200000 750000 0  250000 750000 0  300000 750000 0  350000 750000 0  400000 750000 0  450000 750000 0  500000 750000 0  550000 750000 0  600000 750000 0  650000 750000 0  700000 750000 0  750000 750000 0  800000 750000 0  850000 750000 0  900000 750000 0  950000 750000 0  1000000 750000 0  0 800000 0  50000 800000 0  100000 800000 0  150000 800000 0  200000 800000 0  250000 800000 0  300000 800000 0  350000 800000 0  400000 800000 0  450000 800000 0  500000 800000 0  550000 800000 0  600000 800000 0  650000 800000 0  700000 800000 0  750000 800000 0  800000 800000 0  850000 800000 0  900000 800000 0  950000 800000 0  1000000 800000 0  0 850000 0  50000 850000 0  100000 850000 0  150000 850000 0  200000 850000 0  250000 850000 0  300000 850000 0  350000 850000 0  400000 850000 0  450000 850000 0  500000 850000 0  550000 850000 0  600000 850000 0  650000 850000 0  700000 850000 0  750000 850000 0  800000 850000 0  850000 850000 0  900000 850000 0  950000 850000 0  1000000 850000 0  0 900000 0  50000 900000 0  100000 900000 0  150000 900000 0  200000 900000 0  250000 900000 0  300000 900000 0  350000 900000 0  400000 900000 0  450000 900000 0  500000 900000 0  550000 900000 0  600000 900000 0  650000 900000 0  700000 900000 0  750000 900000 0  800000 900000 0  850000 900000 0  900000 900000 0  950000 900000 0  1000000 900000 0  0 950000 0  50000 950000 0  100000 950000 0  150000 950000 0  200000 950000 0  250000 950000 0  300000 950000 0  350000 950000 0  400000 950000 0  450000 950000 0  500000 950000 0  550000 950000 0  600000 950000 0  650000 950000 0  700000 950000 0  750000 950000 0  800000 950000 0  850000 950000 0  900000 950000 0  950000 950000 0  1000000 950000 0  0 1000000 0  50000 1000000 0  100000 1000000 0  150000 1000000 0  200000 1000000 0  250000 1000000 0  300000 1000000 0  350000 1000000 0  400000 1000000 0  450000 1000000 0  500000 1000000 0  550000 1000000 0  600000 1000000 0  650000 1000000 0  700000 1000000 0  750000 1000000 0  800000 1000000 0  850000 1000000 0  900000 1000000 0  950000 1000000 0  1000000 1000000 0  0 1050000 0  50000 1050000 0  100000 1050000 0  150000 1050000 0  200000 1050000 0  250000 1050000 0  300000 1050000 0  350000 1050000 0  400000 1050000 0  450000 1050000 0  500000 1050000 0  550000 1050000 0  600000 1050000 0  650000 1050000 0  700000 1050000 0  750000 1050000 0  800000 1050000 0  850000 1050000 0  900000 1050000 0  950000 1050000 0  1000000 1050000 0  0 1100000 0  50000 1100000 0  100000 1100000 0  150000 1100000 0  200000 1100000 0  250000 1100000 0  300000 1100000 0  350000 1100000 0  400000 1100000 0  450000 1100000 0  500000 1100000 0  550000 1100000 0  600000 1100000 0  650000 1100000 0  700000 1100000 0  750000 1100000 0  800000 1100000 0  850000 1100000 0  900000 1100000 0  950000 1100000 0  1000000 1100000 0  0 1150000 0  50000 1150000 0  100000 1150000 0  150000 1150000 0  200000 1150000 0  250000 1150000 0  300000 1150000 0  350000 1150000 0  400000 1150000 0  450000 1150000 0  500000 1150000 0  550000 1150000 0  600000 1150000 0  650000 1150000 0  700000 1150000 0  750000 1150000 0  800000 1150000 0  850000 1150000 0  900000 1150000 0  950000 1150000 0  1000000 1150000 0  0 1200000 0  50000 1200000 0  100000 1200000 0  150000 1200000 0  200000 1200000 0  250000 1200000 0  300000 1200000 0  350000 1200000 0  400000 1200000 0  450000 1200000 0  500000 1200000 0  550000 1200000 0  600000 1200000 0  650000 1200000 0  700000 1200000 0  750000 1200000 0  800000 1200000 0  850000 1200000 0  900000 1200000 0  950000 1200000 0  1000000 1200000 0  0 1250000 0  50000 1250000 0  100000 1250000 0  150000 1250000 0  200000 1250000 0  250000 1250000 0  300000 1250000 0  350000 1250000 0  400000 1250000 0  450000 1250000 0  500000 1250000 0  550000 1250000 0  600000 1250000 0  650000 1250000 0  700000 1250000 0  750000 1250000 0  800000 1250000 0  850000 1250000 0  900000 1250000 0  950000 1250000 0  1000000 1250000 0  0 1300000 0  50000 1300000 0  100000 1300000 0  150000 1300000 0  200000 1300000 0  250000 1300000 0  300000 1300000 0  350000 1300000 0  400000 1300000 0  450000 1300000 0  500000 1300000 0  550000 1300000 0  600000 1300000 0  650000 1300000 0  700000 1300000 0  750000 1300000 0  800000 1300000 0  850000 1300000 0  900000 1300000 0  950000 1300000 0  1000000 1300000 0  0 1350000 0  50000 1350000 0  100000 1350000 0  150000 1350000 0  200000 1350000 0  250000 1350000 0  300000 1350000 0  350000 1350000 0  400000 1350000 0  450000 1350000 0  500000 1350000 0  550000 1350000 0  600000 1350000 0  650000 1350000 0  700000 135
[...]
<PointData  Scalars="f_21"> 
<DataArray  type="Float64"  Name="f_21"  format="ascii">-8.0310941693473854e+00  -8.0306579064919266e+00  -8.0285947961294735e+00  -8.0248959753637781e+00  -8.0196524892445442e+00  -8.0130003617018755e+00  -8.0051141444813450e+00  -7.9962017369416278e+00  -7.9864985922094736e+00  -7.9762612220254487e+00  -7.9657601587760478e+00  -7.9552725638954431e+00  -7.9450746773931371e+00  -7.9354343069140745e+00  -7.9266035612358658e+00  -7.9188120559689130e+00  -7.9122609076891131e+00  -7.9071181084463262e+00  -7.9035161639724052e+00  -7.9015451487128194e+00  -7.9011006093776164e+00  -8.0315024468633744e+00  -8.0310735539321971e+00  -8.0289812253726041e+00  -8.0252567930443739e+00  -8.0199841462148438e+00  -8.0132969449393006e+00  -8.0053692598096191e+00  -7.9964094225762938e+00  -7.9866537926333567e+00  -7.9763600603922509e+00  -7.9658001020319436e+00  -7.9552525155322629e+00  -7.9449950100017759e+00  -7.9352968351682156e+00  -7.9264114430598323e+00  -7.9185695729503234e+00  -7.9119729243106418e+00  -7.9067884001674340e+00  -7.9031419256961417e+00  -7.9011064156399833e+00  -7.9006619030210317e+00  -8.0334304651109569e+00  -8.0330250016924083e+00  -8.0308819069600972e+00  -8.0270445293223229e+00  -8.0216125850577438e+00  -8.0147262520764269e+00  -8.0065647586331590e+00  -7.9973420223682288e+00  -7.9873007724233585e+00  -7.9767057586019412e+00  -7.9658363943997346e+00  -7.9549790610124838e+00  -7.9444192652863777e+00  -7.9344338416756788e+00  -7.9252833927876738e+00  -7.9172051719286101e+00  -7.9104066248562184e+00  -7.9050598076202458e+00  -7.9012967103878706e+00  -7.8992037808143207e+00  -7.8987975273518760e+00  -8.0368588414029336e+00  -8.0364536583592212e+00  -8.0342260076492273e+00  -8.0302042119898136e+00  -8.0244982851626236e+00  -8.0172608422743004e+00  -8.0086826774450870e+00  -7.9989894725194066e+00  -7.9884364593002672e+00  -7.9773016892905915e+00  -7.9658784916112104e+00  -7.9544674842917757e+00  -7.9433684020192983e+00  -7.9328719672525319e+00  -7.9232520308809633e+00  -7.9147582346519894e+00  -7.9076095017097341e+00  -7.9019886976774227e+00  -7.8980383782319228e+00  -7.8958537665200499e+00  -7.8954444973715807e+00  -8.0417424740995731e+00  -8.0413228148060192e+00  -8.0389645690657598e+00  -8.0346828627453544e+00  -8.0285927231236904e+00  -8.0208598292940181e+00  -8.0116907610887846e+00  -8.0013284130963971e+00  -7.9900464483871838e+00  -7.9781423981636586e+00  -7.9659298296927883e+00  -7.9537299790911344e+00  -7.9418631572170941e+00  -7.9306401918985614e+00  -7.9203541637558885e+00  -7.9112727160005045e+00  -7.9036312466404546e+00  -7.8976271883821116e+00  -7.8934146446329336e+00  -7.8910935244533116e+00  -7.8906609219457753e+00  -8.0480585850318693e+00  -8.0476130741611289e+00  -8.0450765221796274e+00  -8.0404553250619539e+00  -8.0338696757278676e+00  -8.0254990483931561e+00  -8.0155687964655495e+00  -8.0043436028245605e+00  -7.9921210053407723e+00  -7.9792239181920044e+00  -7.9659922864075510e+00  -7.9527741932646299e+00  -7.9399167224775624e+00  -7.9277568477016427e+00  -7.9166126143365467e+00  -7.9067748865379910e+00  -7.8984999108033671e+00  -7.8920027106313073e+00  -7.8874501028213402e+00  -7.8849465541078638e+00  -7.8844789533049564e+00  -8.0558050654757789e+00  -8.0553237844707244e+00  -8.0525614026204924e+00  -8.0475190104040539e+00  -8.0403242705542883e+00  -8.0311725480446405e+00  -8.0203110476980761e+00  -8.0080304824337674e+00  -7.9946573670219943e+00  -7.9805456359419473e+00  -7.9660675426672674e+00  -7.9516040669232719e+00  -7.9375350906172635e+00  -7.9242295939591223e+00  -7.9120361183618719e+00  -7.9012737395506836e+00  -7.8922237412222032e+00  -7.8851218791065421e+00  -7.8801497946096113e+00  -7.8774183145724415e+00  -7.8769066168575153e+00  -8.0649963034363221e+00  -8.0644699004981106e+00  -8.0614342437788622e+00  -8.0558873555940256e+00  -8.0479673436326475e+00  -8.0378885282170565e+00  -8.0259235574543961e+00  -8.0123935169969229e+00  -7.9976589085410552e+00  -7.9821101673071038e+00  -7.9661576136871339e+00  -7.9502210025406619e+00  -7.9347188793097416e+00  -7.9200579516119731e+00  -7.9066226842934917e+00  -7.8947653235762312e+00  -7.8847964996956188e+00  -7.8769762464334523e+00  -7.8715038926838670e+00  -7.8684990887770860e+00  -7.8679349384561510e+00  -8.0756585026234688e+00  -8.0750777544016170e+00  -8.0717209066381717e+00  -8.0655844109504020e+00  -8.0568199825897544e+00  -8.0456645572017891e+00  -8.0324203447393252e+00  -8.0174434337557194e+00  -8.0011334027141832e+00  -7.9839226131733474e+00  -7.9662650814827254e+00  -7.9486250578178597e+00  -7.9314654675551388e+00  -7.9152363635187353e+00  -7.9003635410144861e+00  -7.8872374781285766e+00  -7.8762027275705773e+00  -7.8675475909146257e+00  -7.8614924611283801e+00  -7.8581684896920283e+00  -7.8575437102427150e+00  -8.0878245926103247e+00  -8.0871801573423028e+00  -8.0834531934410521e+00  -8.0766397314098395e+00  -8.0669083823200101e+00  -8.0545227978809582e+00  -8.0398193469274410e+00  -8.0231940937819992e+00  -8.0050909388839901e+00  -7.9859895848625335e+00  -7.9663932466073089e+00  -7.9468162087476975e+00  -7.9277713206932692e+00  -7.9097574947899068e+00  -7.8932472801732843e+00  -7.8786746190697654e+00  -7.8664228939856251e+00  -7.8568131078579366e+00  -7.8500905112005590e+00  -7.8464005834804356e+00  -7.8457069614468322e+00  -8.1015285294469042e+00  -8.1008107876595883e+00  -8.0966633511138291e+00  -8.0890829078799129e+00  -8.0782584869102809e+00  -8.0644850047056504e+00  -8.0481380667329958e+00  -8.0296590469597717e+00  -8.0095415774308094e+00  -7.9883180798389883e+00  -7.9665462786018963e+00  -7.9447957617455689e+00  -7.9236345867078386e+00  -7.9036158750450127e+00  -7.8852643509486278e+00  -7.8690628472217021e+00  -7.8554388598217315e+00  -7.8447510096618256e+00  -7.8372736479285994e+00  -7.8331696493331346e+00  -7.8323988313775512e+00  -8.1167987214042938e+00  -8.1159976624383603e+00  -8.1113776581488395e+00  -8.1029372810156133e+00  -8.0908899222290636e+00  -8.0755668832770091e+00  -8.0573886378630526e+00  -8.0368475892326980e+00  -8.0144926413475872e+00  -7.9909141779037949e+00  -7.9667293987245271e+00  -7.9425680103586229e+00  -7.9190581225504779e+00  -7.8968121095472332e+00  -7.8764122110958423e+00  -7.8583957647285656e+00  -7.8432400973233207e+00  -7.8313469507278803e+00  -7.8230246065133304e+00  -7.8184568156320369e+00  -7.8176002542470426e+00  -8.1336502762297904e+00  -8.1327554099495281e+00  -8.1276087822163863e+00  -8.1182124430858167e+00  -8.1048087745150195e+00  -8.0877713822586994e+00  -8.0675719445401040e+00  -8.0447600465635691e+00  -8.0199454663810013e+00  -7.9937814783321963e+00  -7.9669491141446995e+00  -7.9401422524100891e+00  -7.9140531585813703e+00  -7.8893579519931194e+00  -7.8667014989582729e+00  -7.8466814128715177e+00  -7.8298310894160874e+00  -7.8166016623717542e+00  -7.8073409994999245e+00  -7.8022578732454360e+00  -7.8013067955161253e+00  -8.1520757265827317e+00  -8.1510760052977389e+00  -8.1453465506753044e+00  -8.1348951177154305e+00  -8.1199987603217032e+00  -8.1010804583759306e+00  -8.0786703784885336e+00  -8.0533819501883883e+00  -8.0258913802030438e+00  -7.9969191680930143e+00  -7.9672135187460373e+00  -7.9375353058895231e+00  -7.9086438535710126e+00  -7.8812825884050177e+00  -7.8561636465430151e+00  -7.8339507864812044e+00  -7.8152403580128151e+00  -7.8005402071261480e+00  -7.7902446368231484e+00  -7.7845926086402857e+00  -7.7835379896252554e+00  -8.1720338455412147e+00  -8.1709175792838149e+00  -8.1645467145961899e+00  -8.1529379468544771e+00  -8.1364102734430013e+00  -8.1154447926722408e+00  -8.0906387527736907e+00  -8.0626767090231493e+00  -8.0323066363482294e+00  -8.0003195869258263e+00  -7.9675326750282434e+00  -7.9347746856002708e+00  -7.9028730386804238e+00  -7.8726405445159351e+00  -7.8448604253780552e+00  -7.8202684515392340e+00  -7.7995316367558623e+00  -7.7832233233182100e+00  -7.7717928384504358e+00  -7.7655160467930742e+00  -7.7643485662874125e+00  -8.1934361112947549e+00  -8.1921908516140256e+00  -8.1851172092458775e+00  -8.1722456208295569e+00  -8.1539466944457075e+00  -8.1307708400458267e+00  -8.1033928086646760e+00  -8.0725763208193779e+00  -8.0391459857920839e+00  -8.0039651336164219e+00  -7.9679190913651690e+00  -7.9319026245835227e+00  -7.8968094949645709e+00  -7.8635216997100157e+00  -7.8328960084236687e+00  -7.8057458963369264e+00  -7.7828178079579740e+00  -7.7647614247108327e+00  -7.7520922358799096e+00  -7.7451320528543395e+00  -7.7438420054610848e+00  -8.2161303138630029e+00  -8.2147426656027847e+00  -8.2069013110492204e+00  -8.1926576564780422e+00  -8.1724472086487090e+00  -8.1469044688932666e+00  -8.1167946572437923e+00  -8.0829696036117440e+00  -8.0463345368622274e+00  -8.0078243436159706e+00  -7.9683883066396541e+00  -7.9289811359573799e+00  -7.8905571433765678e+00  -7.8540639583570178e+00  -7.8204322368352663e+00  -7.7905583822650071e+00  -7.7652783699228909e+00  -7.7453319534178551e+00  -7.7313156635055984e+00  -7.7236098198853114e+00  -7.7221869329931971e+00  -8.2398807054185781e+00  -8.2383359980597994e+00  -8.2296569435447360e+00  -8.2139269428232442e+00  -8.1916651921795438e+00  -8.1636103022414659e+00  -8.1306344142406779e+00  -8.0936874018685181e+00  -8.0537575578998304e+00  -8.0118469744199228e+00  -7.9689595867273741e+00  -7.9260982930786090e+00  -7.8842665205308329e+00  -7.8444691658852195e+00  -7.8077078812272900e+00  -7.7749662247728208e+00  -7.7471814009108906e+00  -7.7252009770331398e+00  -7.7097228937876796e+00  -7.7012038832689651e+00  -7.6996369731961680e+00  -8.2643439558935174e+00  -8.2626256567606315e+00  -8.2530311548358188e+00  -8.2356928989935785e+00  -8.2112409814414615e+00  -8.1805457273420643e+00  -8.1446072634174591e+00  -8.1044842873592700e+00  -8.0612479678472067e+00  -8.0159579886462904e+00  -7.9696567190582508e+00  -7.9233758226635871e+00  -7.8781488110105862e+00  -7.8350228026290125e+00  -7.7950627404599544e+00  -7.7593416163447149e+00  -7.7289112598486032e+00  -7.7047502118384559e+00  -7.6876862106650110e+00  -7.6782784817341660e+00  -7.6765548399934387e+00  -8.2890399395003858e+00  -8.2871286014901848e+00  -8.2765284015269938e+00  -8.2574476620059798e+00  -8.2306675262557096e+00  -8.1972284495617611e+00  -8.1582853210419373e+00  -8.1150165470209998e+00  -8.0685715307779429e+00  -8.0200504733356670e+00  -7.9705088537788509e+00  -7.9209778930306065e+00  -7.8724924042150457e+00  -7.8261177279774294e+00  -7.7829673358424758e+00  -7.7442022661863419e+00  -7.7110036409087410e+00  -7.6845111152906913e+00  -7.6657222208342946e+00  -7.6553373918895327e+00  -7.6534417318502763e+00  -8.3133159516105408e+00  -8.3111873165771701e+00  -8.2994705795675205e+00  -8.2784930311533724e+00  -8.2492470414394230e+00  -8.2129965517131396e+00  -8.1710841693079441e+00  -8.1248169335720313e+00  -8.0754103781259996e+00  -8.0239778555705623e+00  -7.9715512695622044e+00  -7.9191205345057316e+00  -7.8676812634736430e+00  -7.8182815683427647e+00  -7.7720585491567364e+00  -7.7302531828570151e+00  -7.6941901138636180e+00  -7.6652084548204318e+00  -7.6445320246696564e+00  -7.6330609197066819e+00  -7.6309736102247836e+00  -8.3363021535907151e+00  -8.3339236808128216e+00  -8.3209454389353823e+00  -8.2978847547237304e+00  -8.2660363765417539e+00  -8.2269605636549983e+00  -8.1822251560835308e+00  -8.1332680939788045e+00  -8.0813466681381296e+00  -8.0275463827993594e+00  -7.9728258214988417e+00  -7.9180803004446245e+00  -7.8642130575203701e+00  -7.8122058733959534e+00  -7.7631804498967227e+00  -7.7184376357301741e+00  -7.6794549481094965e+00  -7.6478170636670404e+00  -7.6250532139438354e+00  -7.6123527842481025e+00  -7.6100469120096550e+00  -8.3568544960651518e+00  -8.3541787986485669e+00  -8.3397374896541194e+00  -8.3143588810219065e+00  -8.2797786872944013e+00  -8.2379486795282979e+00  -8.1906972073588644e+00  -8.1395793179896838e+00  -8.0858502766088076e+00  -8.0305098687416461e+00  -7.9743806423375503e+00  -7.9181993842489229e+00  -7.8627126184446663e+00  -7.8087722953978389e+00  -7.7574270445230509e+00  -7.7099971413591355e+00  -7.6681077270368778e+00  -7.6336377478999902e+00  -7.6085297657353186e+00  -7.5944016888319057e+00  -7.5918381382219966e+00  -8.3734783281636584e+00  -8.3704300537316225e+00  -8.3542304850505431e+00  -8.3262320622898507e+00  -8.2888200137431198e+00  -8.2444503518761607e+00  -8.1952271371020888e+00  -8.1427759668926658e+00  -8.0882777054264317e+00  -8.0325702617701236e+00  -7.9762684219732716e+00  -7.9198823277359649e+00  -7.8639324351443749e+00  -7.8090658734777163e+00  -7.7561784101522369e+00  -7.7065368995314154e+00  -7.6618754453337203e+00  -7.6244021509469100e+00  -7.5966111201861191e+00  -7.5807665751893092e+00  -7.5778855855956051e+00  -8.3842197949551558e+00  -8.3806671393370333e+00  -8.3622605319813257e+00  -8.3312643422227683e+00  -8.2910142136609561e+00  -8.2445728772953935e+00  -8.1942770324735239e+00  -8.1417182761708826e+00  -8.0878938888682743e+00  -8.0333895619384403e+00  -7.9785423476182880e+00  -7.9235768680166219e+00  -7.8687264519678104e+00  -7.8143569842124467e+00  -7.7611112606977883e+00  -7.7100842968254950e+00  -7.6630153401162024e+00  -7.6224225172238196e+00  -7.5915025934746616e+00  -7.5735036155472937e+00  -7.5702096227328788e+00  -8.3864994884633060e+00  -8.3821855330979460e+00  -8.3608794523249497e+00  -8.3264729602168082e+00  -8.2836355720535746e+00  -8.2360455723675248e+00  -8.1861031900562988e+00  -8.1351758465813315e+00  -8.0839332267244917e+00  -8.0326203137805905e+00  -7.9812487099480638e+00  -7.9297293278394516e+00  -7.8779774915250185e+00  -7.8260213620339574e+00  -7.7741458928625891e+00  -7.7231066918504716e+00  -7.6744374715464616e+00  -7.6308099532405675e+00  -7.5962127350292894e+00  -7.5753742148726060e+00  -7.5715065655730003e+00  -8.3768340485879609e+00  -8.3711941029216206e+00  -8.3459556727500246e+00  -8.3079060335240786e+00  -8.2633627240203822e+00  -8.2163445885793323e+00  -8.1689330957483275e+00  -8.1219925577721046e+00  -8.0757175618823194e+00  -8.0299614804659676e+00  -7.9844154486173302e+00  -7.9387055488303062e+00  -7.8924560518030251e+00  -7.8453550819097932e+00  -7.7972611641974003e+00  -7.7484064095324019e+00  -7.6997811410940589e+00  -7.6537820694826566e+00  -7.6149949443624658e+00  -7.5902289965385572e+00  -7.5854990733848293e+00  -8.3503015865101009e+00  -8.3419636628023905e+00  -8.3115173742130501e+00  -8.2704843549058360e+00  -8.2265045947240569e+00  -8.1830724249401552e+00  -8.1413353314142753e+00  -8.1013728613827549e+00  -8.0628393385502832e+00  -8.0252401510278180e+00  -7.9880361003584808e+00  -7.9506749881690002e+00  -7.9125971271890441e+00  -7.8732409802367158e+00  -7.8320764795813202e+00  -7.7887192789219002e+00  -7.7432487318245764e+00  -7.6969973175195836e+00  -7.6541802624934556e+00  -7.6238331897376694e+00  -7.6176690437716177e+00  -8.2991967019958679e+00  -8.2848229058426117e+00  -8.2489114356739002e+00  -8.2083599318305325e+00  -8.1698448885898340e+00  -8.1347804700510356e+00  -8.1028351850160742e+00  -8.0732794945661190e+00  -8.0453842092546370e+00  -8.0185000921759180e+00  -7.9920450288206366e+00  -7.9654683156074615e+00  -7.9382100246811147e+00  -7.9096584589662591e+00  -7.8791080654622103e+00  -7.8457345555004583e+00  -7.8086617165851786e+00  -7.7673981502572254e+00  -7.7235855567069711e+00  -7.6860264774852860e+00  -7.6770919641248412e+00  -8.2078765745115358e+00  -8.1816421760908948e+00  -8.1470448977020222e+00  -8.1171005007925299e+00  -8.0926853642121426e+00  -8.0723192522701428e+00  -8.0546697687183197e+00  -8.0388057571214251e+00  -8.0240824110676687e+00  -8.0100252785373449e+00  -7.9962515195870889e+00  -7.9824160536897386e+00  -7.9681682927741564e+00  -7.9531073602899687e+00  -7.9367224783817480e+00  -7.9182987672391096e+00  -7.8967588200948908e+00  -7.8704336545370293e+00  -7.8370899800186313e+00  -7.7972146115643497e+00  -7.7825226201960342e+00  -8.0000000000000000e+00  -8.0000000000000000e+00  -8.0000000000000000e+00  -8.0000000000000000e+00  -8.0000000000000000e+00  -8.0000000000000000e+00  -8.0000000000000000e+00  -8.0000000000000000e+00  -8.0000000000000000e+00  -8.0000000000000000e+00  -8.0000000000000000e+00  -8.0000000000000000e+00  -8.0000000000000000e+00  -8.0000000000000000e+00  -8.0000000000000000e+00  -8.0000000000000000e+00  -8.0000000000000000e+00  -8.0000000000000000e+00  -8.0000000000000000e+00  -8.0000000000000000e+00  -8.0000000000000000e+00  </DataArray> 
</PointData> 
</Piece>
</UnstructuredGrid>
</VTKFile>