<?xml version="1.0"?>
<VTKFile type="UnstructuredGrid"  version="0.1"  >
<UnstructuredGrid>
<Piece  NumberOfPoints="651" NumberOfCells="1200">
<Points>
<DataArray  type="Float64"  NumberOfComponents="3"  format="ascii">0 0 0  50000 0 0  100000 0 0  150000 0 0  200000 0 0  250000 0 0  300000 0 0  350000 0 0  400000 0 0  450000 0 0  500000 0 0  550000 0 0  600000 0 0  650000 0 0  700000 0 0  750000 0 0  800000 0 0  850000 0 0  900000 0 0  950000 0 0  1000000 0 0  0 50000 0  50000 50000 0  100000 50000 0  150000 50000 0  200000 50000 0  250000 50000 0  300000 50000 0  350000 50000 0  400000 50000 0  450000 50000 0  500000 50000 0  550000 50000 0  600000 50000 0  650000 50000 0  700000 50000 0  750000 50000 0  800000 50000 0  850000 50000 0  900000 50000 0  950000 50000 0  1000000 50000 0  0 100000 0  50000 100000 0  100000 100000 0  150000 100000 0  200000 100000 0  250000 100000 0  300000 100000 0  350000 100000 0  400000 100000 0  450000 100000 0  500000 100000 0  550000 100000 0  600000 100000 0  650000 100000 0  700000 100000 0  750000 100000 0  800000 100000 0  850000 100000 0  900000 100000 0  950000 100000 0  1000000 100000 0  0 150000 0  50000 150000 0  100000 150000 0  150000 150000 0  200000 150000 0  250000 150000 0  300000 150000 0  350000 150000 0  400000 150000 0  450000 150000 0  500000 150000 0  550000 150000 0  600000 150000 0  650000 150000 0  700000 150000 0  750000 150000 0  800000 150000 0  850000 150000 0  900000 150000 0  950000 150000 0  1000000 150000 0  0 200000 0  50000 200000 0  100000 200000 0  150000 200000 0  200000 200000 0  250000 200000 0  300000 200000 0  350000 200000 0  400000 200000 0  450000 200000 0  500000 200000 0  550000 200000 0  600000 200000 0  650000 200000 0  700000 200000 0  750000 200000 0  800000 200000 0  850000 200000 0  900000 200000 0  950000 200000 0  1000000 200000 0  0 250000 0  50000 250000 0  100000 250000 0  150000 250000 0  200000 250000 0  250000 250000 0  300000 250000 0  350000 250000 0  400000 250000 0  450000 250000 0  500000 250000 0  550000 250000 0  600000 250000 0  650000 250000 0  700000 250000 0  750000 250000 0  800000 250000 0  850000 250000 0  900000 250000 0  950000 250000 0  1000000 250000 0  0 300000 0  50000 300000 0  100000 300000 0  150000 300000 0  200000 300000 0  250000 300000 0  300000 300000 0  350000 300000 0  400000 300000 0  450000 300000 0  500000 300000 0  550000 300000 0  600000 300000 0  650000 300000 0  700000 300000 0  750000 300000 0  800000 300000 0  850000 300000 0  900000 300000 0  950000 300000 0  1000000 300000 0  0 350000 0  50000 350000 0  100000 350000 0  150000 350000 0  200000 350000 0  250000 350000 0  300000 350000 0  350000 350000 0  400000 350000 0  450000 350000 0  500000 350000 0  550000 350000 0  600000 350000 0  650000 350000 0  700000 350000 0  750000 350000 0  800000 350000 0  850000 350000 0  900000 350000 0  950000 350000 0  1000000 350000 0  0 400000 0  50000 400000 0  100000 400000 0  150000 400000 0  200000 400000 0  250000 400000 0  300000 400000 0  350000 400000 0  400000 400000 0  450000 400000 0  500000 400000 0  550000 400000 0  600000 400000 0  650000 400000 0  700000 400000 0  750000 400000 0  800000 400000 0  850000 400000 0  900000 400000 0  950000 400000 0  1000000 400000 0  0 450000 0  50000 450000 0  100000 450000 0  150000 450000 0  200000 450000 0  250000 450000 0  300000 450000 0  350000 450000 0  400000 450000 0  450000 450000 0  500000 450000 0  550000 450000 0  600000 450000 0  650000 450000 0  700000 450000 0  750000 450000 0  800000 450000 0  850000 450000 0  900000 450000 0  950000 450000 0  1000000 450000 0  0 500000 0  50000 500000 0  100000 500000 0  150000 500000 0  200000 500000 0  250000 500000 0  300000 500000 0  350000 500000 0  400000 500000 0  450000 500000 0  500000 500000 0  550000 500000 0  600000 500000 0  650000 500000 0  700000 500000 0  750000 500000 0  800000 500000 0  850000 500000 0  900000 500000 0  950000 500000 0  1000000 500000 0  0 550000 0  50000 550000 0  100000 550000 0  150000 550000 0  200000 550000 0  250000 550000 0  300000 550000 0  350000 550000 0  400000 550000 0  450000 550000 0  500000 550000 0  550000 550000 0  600000 550000 0  650000 550000 0  700000 550000 0  750000 550000 0  800000 550000 0  850000 550000 0  900000 550000 0  950000 550000 0  1000000 550000 0  0 600000 0  50000 600000 0  100000 600000 0  150000 600000 0  200000 600000 0  250000 600000 0  300000 600000 0  350000 600000 0  400000 600000 0  450000 600000 0  500000 600000 0  550000 600000 0  600000 600000 0  650000 600000 0  700000 600000 0  750000 600000 0  800000 600000 0  850000 600000 0  900000 600000 0  950000 600000 0  1000000 600000 0  0 650000 0  50000 650000 0  100000 650000 0  150000 650000 0  200000 650000 0  250000 650000 0  300000 650000 0  350000 650000 0  400000 650000 0  450000 650000 0  500000 650000 0  550000 650000 0  600000 650000 0  650000 650000 0  700000 650000 0  750000 650000 0  800000 650000 0  850000 650000 0  900000 650000 0  950000 650000 0  1000000 650000 0  0 700000 0  50000 700000 0  100000 700000 0  150000 700000 0  200000 700000 0  250000 700000 0  300000 700000 0  350000 700000 0  400000 700000 0  450000 700000 0  500000 700000 0  550000 700000 0  600000 700000 0  650000 700000 0  700000 700000 0  750000 700000 0  800000 700000 0  850000 700000 0  900000 700000 0  950000 700000 0  1000000 700000 0  0 750000 0  50000 750000 0  100000 750000 0  150000 750000 0  200000 750000 0  250000 750000 0  300000 750000 0  350000 750000 0  400000 750000 0  450000 750000 0  500000 750000 0  550000 750000 0  600000 750000 0  650000 750000 0  700000 750000 0  750000 750000 0  800000 750000 0  850000 750000 0  900000 750000 0  950000 750000 0  1000000 750000 0  0 800000 0  50000 800000 0  100000 800000 0  150000 800000 0  200000 800000 0  250000 800000 0  300000 800000 0  350000 800000 0  400000 800000 0  450000 800000 0  500000 800000 0  550000 800000 0  600000 800000 0  650000 800000 0  700000 800000 0  750000 800000 0  800000 800000 0  850000 800000 0  900000 800000 0  950000 800000 0  1000000 800000 0  0 850000 0  50000 850000 0  100000 850000 0  150000 850000 0  200000 850000 0  250000 850000 0  300000 850000 0  350000 850000 0  400000 850000 0  450000 850000 0  500000 850000 0  550000 850000 0  600000 850000 0  650000 850000 0  700000 850000 0  750000 850000 0  800000 850000 0  850000 850000 0  900000 850000 0  950000 850000 0  1000000 850000 0  0 900000 0  50000 900000 0  100000 900000 0  150000 900000 0  200000 900000 0  250000 900000 0  300000 900000 0  350000 900000 0  400000 900000 0  450000 900000 0  500000 900000 0  550000 900000 0  600000 900000 0  650000 900000 0  700000 900000 0  750000 900000 0  800000 900000 0  850000 900000 0  900000 900000 0  950000 900000 0  1000000 900000 0  0 950000 0  50000 950000 0  100000 950000 0  150000 950000 0  200000 950000 0  250000 950000 0  300000 950000 0  350000 950000 0  400000 950000 0  450000 950000 0  500000 950000 0  550000 950000 0  600000 950000 0  650000 950000 0  700000 950000 0  750000 950000 0  800000 950000 0  850000 950000 0  900000 950000 0  950000 950000 0  1000000 950000 0  0 1000000 0  50000 1000000 0  100000 1000000 0  150000 1000000 0  200000 1000000 0  250000 1000000 0  300000 1000000 0  350000 1000000 0  400000 1000000 0  450000 1000000 0  500000 1000000 0  550000 1000000 0  600000 1000000 0  650000 1000000 0  700000 1000000 0  750000 1000000 0  800000 1000000 0  850000 1000000 0  900000 1000000 0  950000 1000000 0  1000000 1000000 0  0 1050000 0  50000 1050000 0  100000 1050000 0  150000 1050000 0  200000 1050000 0  250000 1050000 0  300000 1050000 0  350000 1050000 0  400000 1050000 0  450000 1050000 0  500000 1050000 0  550000 1050000 0  600000 1050000 0  650000 1050000 0  700000 1050000 0  750000 1050000 0  800000 1050000 0  850000 1050000 0  900000 1050000 0  950000 1050000 0  1000000 1050000 0  0 1100000 0  50000 1100000 0  100000 1100000 0  150000 1100000 0  200000 1100000 0  250000 1100000 0  300000 1100000 0  350000 1100000 0  400000 1100000 0  450000 1100000 0  500000 1100000 0  550000 1100000 0  600000 1100000 0  650000 1100000 0  700000 1100000 0  750000 1100000 0  800000 1100000 0  850000 1100000 0  900000 1100000 0  950000 1100000 0  1000000 1100000 0  0 1150000 0  50000 1150000 0  100000 1150000 0  150000 1150000 0  200000 1150000 0  250000 1150000 0  300000 1150000 0  350000 1150000 0  400000 1150000 0  450000 1150000 0  500000 1150000 0  550000 1150000 0  600000 1150000 0  650000 1150000 0  700000 1150000 0  750000 1150000 0  800000 1150000 0  850000 1150000 0  900000 1150000 0  950000 1150000 0  1000000 1150000 0  0 1200000 0  50000 1200000 0  100000 1200000 0  150000 1200000 0  200000 1200000 0  250000 1200000 0  300000 1200000 0  350000 1200000 0  400000 1200000 0  450000 1200000 0  500000 1200000 0  550000 1200000 0  600000 1200000 0  650000 1200000 0  700000 1200000 0  750000 1200000 0  800000 1200000 0  850000 1200000 0  900000 1200000 0  950000 1200000 0  1000000 1200000 0  0 1250000 0  50000 1250000 0  100000 1250000 0  150000 1250000 0  200000 1250000 0  250000 1250000 0  300000 1250000 0  350000 1250000 0  400000 1250000 0  450000 1250000 0  500000 1250000 0  550000 1250000 0  600000 1250000 0  650000 1250000 0  700000 1250000 0  750000 1250000 0  800000 1250000 0  850000 1250000 0  900000 1250000 0  950000 1250000 0  1000000 1250000 0  0 1300000 0  50000 1300000 0  100000 1300000 0  150000 1300000 0  200000 1300000 0  250000 1300000 0  300000 1300000 0  350000 1300000 0  400000 1300000 0  450000 1300000 0  500000 1300000 0  550000 1300000 0  600000 1300000 0  650000 1300000 0  700000 1300000 0  750000 1300000 0  800000 1300000 0  850000 1300000 0  900000 1300000 0  950000 1300000 0  1000000 1300000 0  0 1350000 0  50000 1350000 0  100000 1350000 0  150000 1350000 0  200000 1350000 0  250000 1350000 0  300000 1350000 0  350000 1350000 0  400000 1350000 0  450000 1350000 0  500000 1350000 0  550000 1350000 0  600000 1350000 0  650000 1350000 0  700000 135
[...]
<PointData  Scalars="f_21"> 
<DataArray  type="Float64"  Name="f_21"  format="ascii">-8.0139653160499673e+00  -8.0137786648037341e+00  -8.0129622053245626e+00  -8.0115098096202377e+00  -8.0094531149625947e+00  -8.0068426387491964e+00  -8.0037451613222323e+00  -8.0002415175721904e+00  -7.9964241468714041e+00  -7.9923943637705470e+00  -7.9882594054531815e+00  -7.9841293305093961e+00  -7.9801138496181299e+00  -7.9763191718123618e+00  -7.9728449525136735e+00  -7.9697814359545163e+00  -7.9672069088380191e+00  -7.9651856523593079e+00  -7.9637666066896298e+00  -7.9629802867017965e+00  -7.9627904721886171e+00  -8.0141401013258946e+00  -8.0139558223391472e+00  -8.0131285346831405e+00  -8.0116653902359793e+00  -8.0095957907871345e+00  -8.0069695722744569e+00  -8.0038534736033764e+00  -8.0003286009446768e+00  -7.9964878334980067e+00  -7.9924330271559079e+00  -7.9882720241071148e+00  -7.9841155241977138e+00  -7.9800738916148592e+00  -7.9762539767783434e+00  -7.9727560347488993e+00  -7.9696708190226904e+00  -7.9670769166095621e+00  -7.9650383245456471e+00  -7.9636019361225898e+00  -7.9627931408922734e+00  -7.9626029962002285e+00  -8.0149001196256791e+00  -8.0147217909686717e+00  -8.0138726430222142e+00  -8.0123647597026739e+00  -8.0102325815992312e+00  -8.0075281856907203e+00  -8.0043202445529804e+00  -8.0006920417054221e+00  -7.9967389638653765e+00  -7.9925656529321092e+00  -7.9882829288334740e+00  -7.9840045677136864e+00  -7.9798440150981857e+00  -7.9759111148150046e+00  -7.9723089356590258e+00  -7.9691307785280188e+00  -7.9664574475754861e+00  -7.9643548655562117e+00  -7.9628720595429732e+00  -7.9620390659348725e+00  -7.9618594262440761e+00  -8.0162417608782128e+00  -8.0160607350861177e+00  -8.0151748215380625e+00  -8.0135927742123663e+00  -8.0113527690936337e+00  -8.0085111516628924e+00  -8.0051407573138960e+00  -8.0013292692333682e+00  -7.9971768516660138e+00  -7.9927932850512482e+00  -7.9882947939037683e+00  -7.9838006962956207e+00  -7.9794299764119367e+00  -7.9752978725130674e+00  -7.9715125726433529e+00  -7.9681721176253424e+00  -7.9653616273250547e+00  -7.9631509837042662e+00  -7.9615930070851544e+00  -7.9607211160655531e+00  -7.9605379177261302e+00  -8.0181536529041519e+00  -8.0179641615944472e+00  -8.0170231865169210e+00  -8.0153364573192416e+00  -8.0129445703793003e+00  -8.0099086765239917e+00  -8.0063073977844361e+00  -8.0022348574330024e+00  -7.9977982324464367e+00  -7.9931147945515049e+00  -7.9883085989136386e+00  -7.9835069641852527e+00  -7.9788368613433036e+00  -7.9744213160040722e+00  -7.9703759276491848e+00  -7.9668056170666306e+00  -7.9638017254619582e+00  -7.9614395718401818e+00  -7.9597763380475417e+00  -7.9588477009029042e+00  -7.9586534049411668e+00  -8.0206326158236205e+00  -8.0204300040515566e+00  -8.0194152124858515e+00  -8.0175920846329713e+00  -8.0150037979006896e+00  -8.0117168529786760e+00  -8.0078169537127852e+00  -8.0034064822818749e+00  -7.9986017528794573e+00  -7.9935298285915115e+00  -7.9883249924480078e+00  -7.9831250008730832e+00  -7.9780672385065072e+00  -7.9732848839591846e+00  -7.9689031944395552e+00  -7.9650360218173812e+00  -7.9617826726550343e+00  -7.9592251721272120e+00  -7.9574256731407154e+00  -7.9564221585607608e+00  -7.9562120043286502e+00  -8.0236830406506634e+00  -8.0234630826484423e+00  -8.0223556527338271e+00  -8.0203635815274410e+00  -8.0175333978852432e+00  -8.0139378604658429e+00  -8.0096710805158065e+00  -8.0048454451678541e+00  -7.9995884596397033e+00  -7.9940392291997870e+00  -7.9883446276710153e+00  -7.9826552594258562e+00  -7.9771213249066859e+00  -7.9718884948425757e+00  -7.9670938973912380e+00  -7.9628623247617396e+00  -7.9593027583095557e+00  -7.9565052419109135e+00  -7.9545377842645077e+00  -7.9534412910612824e+00  -7.9532113490701839e+00  -8.0273154121938912e+00  -8.0270740059821879e+00  -8.0258549118769817e+00  -8.0236605233383944e+00  -8.0205417034808395e+00  -8.0165786572870665e+00  -8.0118753833705085e+00  -8.0065560675520242e+00  -8.0007614577211434e+00  -7.9946449318613819e+00  -7.9883682915030167e+00  -7.9820973724826381e+00  -7.9759975695558794e+00  -7.9702293678564207e+00  -7.9649439743915451e+00  -7.9602791462908842e+00  -7.9563553057643812e+00  -7.9532719615212164e+00  -7.9511040929708017e+00  -7.9498963548807362e+00  -7.9496429139172786e+00  -8.0315446089229674e+00  -8.0312776248447584e+00  -8.0299274105149738e+00  -8.0274963294810053e+00  -8.0240406526350689e+00  -8.0196494155358202e+00  -8.0144381565288842e+00  -8.0085447589353453e+00  -8.0021253108763410e+00  -7.9953496987531683e+00  -7.9883969695344934e+00  -7.9814505446414268e+00  -7.9746933652818832e+00  -7.9683030425246901e+00  -7.9624470867964270e+00  -7.9572783001498433e+00  -7.9529304162023173e+00  -7.9495140101491035e+00  -7.9471123226741360e+00  -7.9457746773339171e+00  -7.9454940437865540e+00  -8.0363879953881092e+00  -8.0360911874606575e+00  -8.0345897666537187e+00  -8.0318864152981657e+00  -8.0280439707742524e+00  -8.0231618530735194e+00  -8.0173689667216799e+00  -8.0108189202529640e+00  -8.0036853077187367e+00  -7.9961567723792450e+00  -7.9884318972555164e+00  -7.9807139970388983e+00  -7.9732058682160956e+00  -7.9661045406344835e+00  -7.9595960763413638e+00  -7.9538504792578593e+00  -7.9490167957602020e+00  -7.9452184374444981e+00  -7.9425483599370317e+00  -7.9410615621746139e+00  -7.9407499807748545e+00  -8.0418632271119268e+00  -8.0415321725573943e+00  -8.0398586751936207e+00  -8.0368461062599685e+00  -8.0325651562377107e+00  -8.0271273724303835e+00  -8.0206770423798446e+00  -8.0133856706917364e+00  -8.0054465941168509e+00  -7.9970694588491575e+00  -7.9884746151847263e+00  -7.9798874901949803e+00  -7.9715329597329765e+00  -7.9636297163505008e+00  -7.9563846337258379e+00  -7.9499871593974367e+00  -7.9446038064880193e+00  -7.9403727873492906e+00  -7.9373984157729796e+00  -7.9357424987463787e+00  -7.9353961144484551e+00  -8.0479856627609667e+00  -8.0476157158542652e+00  -8.0457483758559274e+00  -8.0423881636292229e+00  -8.0376151070549824e+00  -8.0315548683330515e+00  -8.0243693638425437e+00  -8.0162503247377774e+00  -8.0074131269647850e+00  -7.9980906225937609e+00  -7.9885270360289091e+00  -7.9789719592473842e+00  -7.9696744103169035e+00  -7.9608768789026270e+00  -7.9528092883348656e+00  -7.9456828540471394e+00  -7.9396838892969850e+00  -7.9349676139163936e+00  -7.9316515930824636e+00  -7.9298057674079887e+00  -7.9294206047559408e+00  -8.0547652612677147e+00  -8.0543515141660720e+00  -8.0522675862560007e+00  -8.0485197759304494e+00  -8.0431992295842445e+00  -8.0364480492687491e+00  -8.0284483205297388e+00  -8.0194145150582994e+00  -8.0095863794251247e+00  -7.9992220597985986e+00  -7.9885915294529868e+00  -7.9779703049094550e+00  -7.9676333241129491e+00  -7.9578487978901000e+00  -7.9488718542525438e+00  -7.9409378715337908e+00  -7.9342555130759234e+00  -7.9289995314365189e+00  -7.9253029840232641e+00  -7.9232455605669818e+00  -7.9228175108914751e+00  -8.0622028236039096e+00  -8.0617400680695166e+00  -8.0594157541471354e+00  -8.0552388540550144e+00  -8.0493138536258932e+00  -8.0418020975727202e+00  -8.0329087755426887e+00  -8.0228738315522001e+00  -8.0119637078662098e+00  -8.0004637068445152e+00  -7.9886710295405976e+00  -7.9768883934978039e+00  -7.9654179619862662e+00  -7.9545552263213146e+00  -7.9445824943837779e+00  -7.9357617495214123e+00  -7.9283268236327977e+00  -7.9224749596930248e+00  -7.9183574428726953e+00  -7.9160657584070542e+00  -7.9155905677077749e+00  -8.0702854188013919e+00  -8.0697681012577238e+00  -8.0671784553679675e+00  -8.0625294381672887e+00  -8.0559417474601513e+00  -8.0475994603721954e+00  -8.0377343470096942e+00  -8.0266148200175831e+00  -8.0145362711489625e+00  -8.0018126298268211e+00  -7.9887691701353818e+00  -7.9757363299714727e+00  -7.9630440613024618e+00  -7.9510161048567110e+00  -7.9399635977349314e+00  -7.9301775762996902e+00  -7.9219201988841537e+00  -7.9154147550866805e+00  -7.9108342064612973e+00  -7.9082845198278493e+00  -7.9077577687227603e+00  -8.0789808103096359e+00  -8.0784029688154675e+00  -8.0755217303698856e+00  -8.0703559834321652e+00  -8.0630464813130693e+00  -8.0538045199141273e+00  -8.0428926774050620e+00  -8.0306111545412993e+00  -8.0172863734910660e+00  -8.0032617316471875e+00  -7.9888904532948235e+00  -7.9745300779056922e+00  -7.9605377912872619e+00  -7.9472656421912422e+00  -7.9350547056141734e+00  -7.9242274544634563e+00  -7.9150779629515533e+00  -7.9078599596600450e+00  -7.9027725676011240e+00  -7.8999398749539536e+00  -7.8993569380832431e+00  -8.0882306694309261e+00  -8.0875858341995510e+00  -8.0843851081689007e+00  -8.0786562358703708e+00  -8.0705653277242657e+00  -8.0603568372020842e+00  -8.0483294199988631e+00  -8.0348187702259910e+00  -8.0201840869585617e+00  -8.0047981064472769e+00  -7.9890404553470349e+00  -7.9732935062192487e+00  -7.9579394988280709e+00  -7.9433574966932419e+00  -7.9299187683960364e+00  -7.9179794207702727e+00  -7.9078695741062521e+00  -7.8998789565934056e+00  -7.8942388514232578e+00  -7.8910965391647334e+00  -7.8904525046827771e+00  -8.0979423223456060e+00  -8.0972233496567938e+00  -8.0936730040289149e+00  -8.0873323316371746e+00  -8.0784003085205853e+00  -8.0671626001685048e+00  -8.0539606341235128e+00  -8.0391697287494672e+00  -8.0231830090766714e+00  -8.0064009728777279e+00  -7.9892260723901698e+00  -7.9720609367488864e+00  -7.9553083995195575e+00  -7.9393713019656165e+00  -7.9246500582994397e+00  -7.9115362054399681e+00  -7.9004006851351596e+00  -7.8915764011116041e+00  -7.8853350085849137e+00  -7.8818542164148493e+00  -7.8811437355686138e+00  -8.1079787158601118e+00  -8.1071775051935475e+00  -8.1032440803617138e+00  -8.0962396381155486e+00  -8.0864068950386283e+00  -8.0740838446318808e+00  -8.0596632673361110e+00  -8.0435646125473177e+00  -8.0262150459259125e+00  -8.0080391389724923e+00  -7.9894558006024567e+00  -7.9708802349809700e+00  -7.9527283298885205e+00  -7.9354207599992836e+00  -7.9193840883013600e+00  -7.9050462904741261e+00  -7.8928245882458183e+00  -7.8831044160799566e+00  -7.8762092391909535e+00  -7.8723577345196816e+00  -7.8715747546206369e+00  -8.1181461840495341e+00  -8.1172531930058529e+00  -8.1128979981562885e+00  -8.1051726769786328e+00  -8.0943797347192810e+00  -8.0809249733072299e+00  -8.0652634529630376e+00  -8.0478633502697523e+00  -8.0291842194099861e+00  -8.0096680120341297e+00  -7.9897400332929847e+00  -7.9698164029118788e+00  -7.9503145572831455e+00  -7.9316634234249106e+00  -7.9143098561301812e+00  -7.8987177956660375e+00  -7.8853567123508501e+00  -7.8746767315589725e+00  -7.8670692287531923e+00  -7.8628094825062886e+00  -7.8619467897490551e+00  -8.1281794134950900e+00  -8.1271828189510433e+00  -8.1223586968968942e+00  -8.1138471811347106e+00  -8.1020346118097262e+00  -8.0874161240384144e+00  -8.0705225458433656e+00  -8.0518746499259617e+00  -8.0319597434830659e+00  -8.0112262993105876e+00  -7.9900913314508353e+00  -7.9689554565804670e+00  -7.9482213722184989e+00  -7.9283120169261387e+00  -7.9096845697760898e+00  -7.8928357451799540e+00  -7.8782930526987389e+00  -7.8665867613219840e+00  -7.8581988752276812e+00  -7.8534848505115953e+00  -7.8525333039645346e+00  -8.1377226613003373e+00  -8.1366068799850080e+00  -8.1312527998338897e+00  -8.1218768609731899e+00  -8.1089856749610458e+00  -8.0931931464561835e+00  -8.0751213102753550e+00  -8.0553447979157031e+00  -8.0343690973197184e+00  -8.0126327967314310e+00  -7.9905245814770298e+00  -7.9684080407065387e+00  -7.9466496508003548e+00  -7.9256465562738523e+00  -7.9058505667189838e+00  -7.8877831526189128e+00  -7.8720336865372165e+00  -7.8592311436732327e+00  -7.8499799399552916e+00  -7.8447518077031821e+00  -7.8436990654405898e+00  -8.1463056263380196e+00  -8.1450486003834595e+00  -8.1390806944595084e+00  -8.1287426751764542e+00  -8.1147168854591545e+00  -8.0977745918150976e+00  -8.0786437423480546e+00  -8.0579476907680530e+00  -8.0361926764218072e+00  -8.0137840909914502e+00  -7.9910568874684706e+00  -7.9683116764259312e+00  -7.9458526145633908e+00  -7.9240253645535805e+00  -7.9032531214881594e+00  -7.8840658795476894e+00  -7.8671128175998977e+00  -7.8531411949524657e+00  -7.8429211248162112e+00  -7.8370966053666944e+00  -7.8359249906044752e+00  -8.1533111109161922e+00  -8.1518789811636694e+00  -8.1451757642903804e+00  -8.1337512088975465e+00  -8.1185470173530376e+00  -8.1005377623404264e+00  -8.0805641346988555e+00  -8.0592798930987168e+00  -8.0371629548102419e+00  -8.0145546466510194e+00  -7.9917069581435713e+00  -7.9688297060900446e+00  -7.9461364635563783e+00  -7.9238909972197114e+00  -7.9024557000966205e+00  -7.8823398255673345e+00  -7.8642368583135109e+00  -7.8490262864027436e+00  -7.8376992174998801e+00  -7.8311593283566756e+00  -7.8298421689055893e+00  -8.1579291232936253e+00  -8.1562647115994800e+00  -8.1486431101577210e+00  -8.1359773231061716e+00  -8.1195894544833873e+00  -8.1006996646857541e+00  -8.0802449055157446e+00  -8.0588675239918839e+00  -8.0369729450454859e+00  -8.0148015704951501e+00  -7.9924936639699329e+00  -7.9701439618062571e+00  -7.9478503724298131e+00  -7.9257636615486184e+00  -7.9041450176151340e+00  -7.8834354196714580e+00  -7.8643310224783596e+00  -7.8478356193990848e+00  -7.8352213823709960e+00  -7.8277867578073304e+00  -7.8262818266801943e+00  -8.1590869812690556e+00  -8.1570818729770149e+00  -8.1482610863770208e+00  -8.1341861033971643e+00  -8.1167144151531581e+00  -8.0973168510333355e+00  -8.0769592344880383e+00  -8.0561957483851021e+00  -8.0353006807279765e+00  -8.0143770637484284e+00  -7.9934334187003433e+00  -7.9724373201166827e+00  -7.9513579488703030e+00  -7.9302098559140433e+00  -7.9091106208123012e+00  -7.8883657571722869e+00  -7.8685898331225763e+00  -7.8508478310218912e+00  -7.8367271793039990e+00  -7.8281187409528190e+00  -7.8263556579407325e+00  -8.1553332057601899e+00  -8.1527531473688928e+00  -8.1423155216249565e+00  -8.1267371492876741e+00  -8.1085392247216941e+00  -8.0893338837983588e+00  -8.0699616555665621e+00  -8.0507752041826350e+00  -8.0318570981485475e+00  -8.0131514452352519e+00  -7.9945361557613062e+00  -7.9758625317699368e+00  -7.9569812088679717e+00  -7.9377689718881257e+00  -7.9181717364175839e+00  -7.8982856064444489e+00  -7.8785088273807489e+00  -7.8597962908168642e+00  -7.8439695523941495e+00  -7.8337470783664207e+00  -7.8316005735377043e+00  -8.1446147811978307e+00  -8.1408964866341336e+00  -8.1283262928184374e+00  -8.1115142963455522e+00  -8.0935160391607184e+00  -8.0757353889737580e+00  -8.0586376139577851e+00  -8.0422584480816575e+00  -8.0264610385675343e+00  -8.0110471680789264e+00  -7.9957998009397198e+00  -7.9804963969568057e+00  -7.9649116777873594e+00  -7.9488204037777459e+00  -7.9320112181103406e+00  -7.9143326818046713e+00  -7.8958196757181742e+00  -7.8770039415012905e+00  -7.8595528327975677e+00  -7.8470552911993705e+00  -7.8442804516831215e+00  -8.1237117459065455e+00  -8.1174966056259432e+00  -8.1026917234692135e+00  -8.0860628796421032e+00  -8.0702715992710790e+00  -8.0558800294385886e+00  -8.0427550198192481e+00  -8.0306036621638057e+00  -8.0191319050672067e+00  -8.0080768235300628e+00  -7.9972020200963128e+00  -7.9862837164172182e+00  -7.9750947676180566e+00  -7.9633879236496545e+00  -7.9508793988247106e+00  -7.9372394717441219e+00  -7.9221194692073134e+00  -7.9053242942515993e+00  -7.8874987942738937e+00  -7.8721004846568752e+00  -7.8681411139961952e+00  -8.0860477492845675e+00  -8.0750171674321258e+00  -8.0607658218839493e+00  -8.0484750004013499e+00  -8.0384422243155544e+00  -8.0300568098129617e+00  -8.0227796567691296e+00  -8.0162341596584348e+00  -8.0101583616454359e+00  -8.0043585882158101e+00  -7.9986780787034286e+00  -7.9929754432287030e+00  -7.9871072874857294e+00  -7.9809102394597762e+00  -7.9741771200829774e+00  -7.9666194367856775e+00  -7.9578043256735924e+00  -7.9470623011409014e+00  -7.9334908842730467e+00  -7.9172463368621626e+00  -7.9109325908696775e+00  -8.0000000000000000e+00  -8.0000000000000000e+00  -8.0000000000000000e+00  -8.0000000000000000e+00  -8.0000000000000000e+00  -8.0000000000000000e+00  -8.0000000000000000e+00  -8.0000000000000000e+00  -8.0000000000000000e+00  -8.0000000000000000e+00  -8.0000000000000000e+00  -8.0000000000000000e+00  -8.0000000000000000e+00  -8.0000000000000000e+00  -8.0000000000000000e+00  -8.0000000000000000e+00  -8.0000000000000000e+00  -8.0000000000000000e+00  -8.0000000000000000e+00  -8.0000000000000000e+00  -8.0000000000000000e+00  </DataArray> 
</PointData> 
</Piece>
</UnstructuredGrid>
</VTKFile>