<?xml version="1.0"?>
<VTKFile type="UnstructuredGrid"  version="0.1"  >
<UnstructuredGrid>
<Piece  NumberOfPoints="651" NumberOfCells="1200">
<Points>
<DataArray  type="Float64"  NumberOfComponents="3"  format="ascii">0 0 0  50000 0 0  100000 0 0  150000 0 0  200000 0 0  250000 0 0  300000 0 0  350000 0 0  400000 0 0  450000 0 0  500000 0 0  550000 0 0  600000 0 0  650000 0 0  700000 0 0  750000 0 0  800000 0 0  850000 0 0  900000 0 0  950000 0 0  1000000 0 0  0 50000 0  50000 50000 0  100000 50000 0  150000 50000 0  200000 50000 0  250000 50000 0  300000 50000 0  350000 50000 0  400000 50000 0  450000 50000 0  500000 50000 0  550000 50000 0  600000 50000 0  650000 50000 0  700000 50000 0  750000 50000 0  800000 50000 0  850000 50000 0  900000 50000 0  950000 50000 0  1000000 50000 0  0 100000 0  50000 100000 0  100000 100000 0  150000 100000 0  200000 100000 0  250000 100000 0  300000 100000 0  350000 100000 0  400000 100000 0  450000 100000 0  500000 100000 0  550000 100000 0  600000 100000 0  650000 100000 0  700000 100000 0  750000 100000 0  800000 100000 0  850000 100000 0  900000 100000 0  950000 100000 0  1000000 100000 0  0 150000 0  50000 150000 0  100000 150000 0  150000 150000 0  200000 150000 0  250000 150000 0  300000 150000 0  350000 150000 0  400000 150000 0  450000 150000 0  500000 150000 0  550000 150000 0  600000 150000 0  650000 150000 0  700000 150000 0  750000 150000 0  800000 150000 0  850000 150000 0  900000 150000 0  950000 150000 0  1000000 150000 0  0 200000 0  50000 200000 0  100000 200000 0  150000 200000 0  200000 200000 0  250000 200000 0  300000 200000 0  350000 200000 0  400000 200000 0  450000 200000 0  500000 200000 0  550000 200000 0  600000 200000 0  650000 200000 0  700000 200000 0  750000 200000 0  800000 200000 0  850000 200000 0  900000 200000 0  950000 200000 0  1000000 200000 0  0 250000 0  50000 250000 0  100000 250000 0  150000 250000 0  200000 250000 0  250000 250000 0  300000 250000 0  350000 250000 0  400000 250000 0  450000 250000 0  500000 250000 0  550000 250000 0  600000 250000 0  650000 250000 0  700000 250000 0  750000 250000 0  800000 250000 0  850000 250000 0  900000 250000 0  950000 250000 0  1000000 250000 0  0 300000 0  50000 300000 0  100000 300000 0  150000 300000 0  200000 300000 0  250000 300000 0  300000 300000 0  350000 300000 0  400000 300000 0  450000 300000 0  500000 300000 0  550000 300000 0  600000 300000 0  650000 300000 0  700000 300000 0  750000 300000 0  800000 300000 0  850000 300000 0  900000 300000 0  950000 300000 0  1000000 300000 0  0 350000 0  50000 350000 0  100000 350000 0  150000 350000 0  200000 350000 0  250000 350000 0  300000 350000 0  350000 350000 0  400000 350000 0  450000 350000 0  500000 350000 0  550000 350000 0  600000 350000 0  650000 350000 0  700000 350000 0  750000 350000 0  800000 350000 0  850000 350000 0  900000 350000 0  950000 350000 0  1000000 350000 0  0 400000 0  50000 400000 0  100000 400000 0  150000 400000 0  200000 400000 0  250000 400000 0  300000 400000 0  350000 400000 0  400000 400000 0  450000 400000 0  500000 400000 0  550000 400000 0  600000 400000 0  650000 400000 0  700000 400000 0  750000 400000 0  800000 400000 0  850000 400000 0  900000 400000 0  950000 400000 0  1000000 400000 0  0 450000 0  50000 450000 0  100000 450000 0  150000 450000 0  200000 450000 0  250000 450000 0  300000 450000 0  350000 450000 0  400000 450000 0  450000 450000 0  500000 450000 0  550000 450000 0  600000 450000 0  650000 450000 0  700000 450000 0  750000 450000 0  800000 450000 0  850000 450000 0  900000 450000 0  950000 450000 0  1000000 450000 0  0 500000 0  50000 500000 0  100000 500000 0  150000 500000 0  200000 500000 0  250000 500000 0  300000 500000 0  350000 500000 0  400000 500000 0  450000 500000 0  500000 500000 0  550000 500000 0  600000 500000 0  650000 500000 0  700000 500000 0  750000 500000 0  800000 500000 0  850000 500000 0  900000 500000 0  950000 500000 0  1000000 500000 0  0 550000 0  50000 550000 0  100000 550000 0  150000 550000 0  200000 550000 0  250000 550000 0  300000 550000 0  350000 550000 0  400000 550000 0  450000 550000 0  500000 550000 0  550000 550000 0  600000 550000 0  650000 550000 0  700000 550000 0  750000 550000 0  800000 550000 0  850000 550000 0  900000 550000 0  950000 550000 0  1000000 550000 0  0 600000 0  50000 600000 0  100000 600000 0  150000 600000 0  200000 600000 0  250000 600000 0  300000 600000 0  350000 600000 0  400000 600000 0  450000 600000 0  500000 600000 0  550000 600000 0  600000 600000 0  650000 600000 0  700000 600000 0  750000 600000 0  800000 600000 0  850000 600000 0  900000 600000 0  950000 600000 0  1000000 600000 0  0 650000 0  50000 650000 0  100000 650000 0  150000 650000 0  200000 650000 0  250000 650000 0  300000 650000 0  350000 650000 0  400000 650000 0  450000 650000 0  500000 650000 0  550000 650000 0  600000 650000 0  650000 650000 0  700000 650000 0  750000 650000 0  800000 650000 0  850000 650000 0  900000 650000 0  950000 650000 0  1000000 650000 0  0 700000 0  50000 700000 0  100000 700000 0  150000 700000 0  200000 700000 0  250000 700000 0  300000 700000 0  350000 700000 0  400000 700000 0  450000 700000 0  500000 700000 0  550000 700000 0  600000 700000 0  650000 700000 0  700000 700000 0  750000 700000 0  800000 700000 0  850000 700000 0  900000 700000 0  950000 700000 0  1000000 700000 0  0 750000 0  50000 750000 0  100000 750000 0  150000 750000 0  200000 750000 0  250000 750000 0  300000 750000 0  350000 750000 0  400000 750000 0  450000 750000 0  500000 750000 0  550000 750000 0  600000 750000 0  650000 750000 0  700000 750000 0  750000 750000 0  800000 750000 0  850000 750000 0  900000 750000 0  950000 750000 0  1000000 750000 0  0 800000 0  50000 800000 0  100000 800000 0  150000 800000 0  200000 800000 0  250000 800000 0  300000 800000 0  350000 800000 0  400000 800000 0  450000 800000 0  500000 800000 0  550000 800000 0  600000 800000 0  650000 800000 0  700000 800000 0  750000 800000 0  800000 800000 0  850000 800000 0  900000 800000 0  950000 800000 0  1000000 800000 0  0 850000 0  50000 850000 0  100000 850000 0  150000 850000 0  200000 850000 0  250000 850000 0  300000 850000 0  350000 850000 0  400000 850000 0  450000 850000 0  500000 850000 0  550000 850000 0  600000 850000 0  650000 850000 0  700000 850000 0  750000 850000 0  800000 850000 0  850000 850000 0  900000 850000 0  950000 850000 0  1000000 850000 0  0 900000 0  50000 900000 0  100000 900000 0  150000 900000 0  200000 900000 0  250000 900000 0  300000 900000 0  350000 900000 0  400000 900000 0  450000 900000 0  500000 900000 0  550000 900000 0  600000 900000 0  650000 900000 0  700000 900000 0  750000 900000 0  800000 900000 0  850000 900000 0  900000 900000 0  950000 900000 0  1000000 900000 0  0 950000 0  50000 950000 0  100000 950000 0  150000 950000 0  200000 950000 0  250000 950000 0  300000 950000 0  350000 950000 0  400000 950000 0  450000 950000 0  500000 950000 0  550000 950000 0  600000 950000 0  650000 950000 0  700000 950000 0  750000 950000 0  800000 950000 0  850000 950000 0  900000 950000 0  950000 950000 0  1000000 950000 0  0 1000000 0  50000 1000000 0  100000 1000000 0  150000 1000000 0  200000 1000000 0  250000 1000000 0  300000 1000000 0  350000 1000000 0  400000 1000000 0  450000 1000000 0  500000 1000000 0  550000 1000000 0  600000 1000000 0  650000 1000000 0  700000 1000000 0  750000 1000000 0  800000 1000000 0  850000 1000000 0  900000 1000000 0  950000 1000000 0  1000000 1000000 0  0 1050000 0  50000 1050000 0  100000 1050000 0  150000 1050000 0  200000 1050000 0  250000 1050000 0  300000 1050000 0  350000 1050000 0  400000 1050000 0  450000 1050000 0  500000 1050000 0  550000 1050000 0  600000 1050000 0  650000 1050000 0  700000 1050000 0  750000 1050000 0  800000 1050000 0  850000 1050000 0  900000 1050000 0  950000 1050000 0  1000000 1050000 0  0 1100000 0  50000 1100000 0  100000 1100000 0  150000 1100000 0  200000 1100000 0  250000 1100000 0  300000 1100000 0  350000 1100000 0  400000 1100000 0  450000 1100000 0  500000 1100000 0  550000 1100000 0  600000 1100000 0  650000 1100000 0  700000 1100000 0  750000 1100000 0  800000 1100000 0  850000 1100000 0  900000 1100000 0  950000 1100000 0  1000000 1100000 0  0 1150000 0  50000 1150000 0  100000 1150000 0  150000 1150000 0  200000 1150000 0  250000 1150000 0  300000 1150000 0  350000 1150000 0  400000 1150000 0  450000 1150000 0  500000 1150000 0  550000 1150000 0  600000 1150000 0  650000 1150000 0  700000 1150000 0  750000 1150000 0  800000 1150000 0  850000 1150000 0  900000 1150000 0  950000 1150000 0  1000000 1150000 0  0 1200000 0  50000 1200000 0  100000 1200000 0  150000 1200000 0  200000 1200000 0  250000 1200000 0  300000 1200000 0  350000 1200000 0  400000 1200000 0  450000 1200000 0  500000 1200000 0  550000 1200000 0  600000 1200000 0  650000 1200000 0  700000 1200000 0  750000 1200000 0  800000 1200000 0  850000 1200000 0  900000 1200000 0  950000 1200000 0  1000000 1200000 0  0 1250000 0  50000 1250000 0  100000 1250000 0  150000 1250000 0  200000 1250000 0  250000 1250000 0  300000 1250000 0  350000 1250000 0  400000 1250000 0  450000 1250000 0  500000 1250000 0  550000 1250000 0  600000 1250000 0  650000 1250000 0  700000 1250000 0  750000 1250000 0  800000 1250000 0  850000 1250000 0  900000 1250000 0  950000 1250000 0  1000000 1250000 0  0 1300000 0  50000 1300000 0  100000 1300000 0  150000 1300000 0  200000 1300000 0  250000 1300000 0  300000 1300000 0  350000 1300000 0  400000 1300000 0  450000 1300000 0  500000 1300000 0  550000 1300000 0  600000 1300000 0  650000 1300000 0  700000 1300000 0  750000 1300000 0  800000 1300000 0  850000 1300000 0  900000 1300000 0  950000 1300000 0  1000000 1300000 0  0 1350000 0  50000 1350000 0  100000 1350000 0  150000 1350000 0  200000 1350000 0  250000 1350000 0  300000 1350000 0  350000 1350000 0  400000 1350000 0  450000 1350000 0  500000 1350000 0  550000 1350000 0  600000 1350000 0  650000 1350000 0  700000 135
[...]
<PointData  Scalars="f_21"> 
<DataArray  type="Float64"  Name="f_21"  format="ascii">-8.0436004773981171e+00  -8.0429777523257169e+00  -8.0399809677093685e+00  -8.0345995030994395e+00  -8.0269684772067826e+00  -8.0172878009020572e+00  -8.0058127494389808e+00  -7.9928464766741438e+00  -7.9787316865365980e+00  -7.9638413029866735e+00  -7.9485683653758130e+00  -7.9333154216285715e+00  -7.9184836975662742e+00  -7.9044623250836015e+00  -7.8916179217249747e+00  -7.8802848496843119e+00  -7.8707566184314484e+00  -7.8632793211581307e+00  -7.8580484715246213e+00  -7.8551990079598095e+00  -7.8545745050978715e+00  -8.0442002772878602e+00  -8.0435915988575157e+00  -8.0405537457351315e+00  -8.0351365528555281e+00  -8.0274647540511808e+00  -8.0177348063788205e+00  -8.0062012452543829e+00  -7.9931678210756933e+00  -7.9789785240645728e+00  -7.9640079561852257e+00  -7.9486510696028017e+00  -7.9333124553776759e+00  -7.9183954263724026e+00  -7.9042911596074452e+00  -7.8913681711750545e+00  -7.8799623966324468e+00  -7.8703681124492455e+00  -7.8628296616079538e+00  -7.8575324752219640e+00  -7.8545851894024734e+00  -7.8539591864758975e+00  -8.0470220491573006e+00  -8.0464519019479219e+00  -8.0433432243754321e+00  -8.0377629578905410e+00  -8.0298598957285083e+00  -8.0198403542861794e+00  -8.0079665293530162e+00  -7.9945503681813070e+00  -7.9799451655815856e+00  -7.9645358164242861e+00  -7.9487282517312909e+00  -7.9329383926557231e+00  -7.9175808991723278e+00  -7.9030579837986226e+00  -7.8897485673203729e+00  -7.8779980679852182e+00  -7.8681091384558863e+00  -7.8603336654392697e+00  -7.8548660574642302e+00  -7.8518351615492934e+00  -7.8512670170116845e+00  -8.0520350067742203e+00  -8.0514686196519047e+00  -8.0482406194087783e+00  -8.0423939933664812e+00  -8.0340927545701106e+00  -8.0235618397746951e+00  -8.0110806209789516e+00  -7.9969783798123419e+00  -7.9816267436979151e+00  -7.9654300594250680e+00  -7.9488145784020015e+00  -7.9322169959950566e+00  -7.9160727282654229e+00  -7.9008042523648392e+00  -7.8868098351619809e+00  -7.8744530144727634e+00  -7.8640532791823849e+00  -7.8558784441643947e+00  -7.8501385434789039e+00  -7.8469752513718793e+00  -7.8464033534486974e+00  -8.0591682913083069e+00  -8.0585838549292870e+00  -8.0551693045589179e+00  -8.0489468017944272e+00  -8.0400873251869900e+00  -8.0288350973943086e+00  -8.0154928121664515e+00  -8.0004150784612964e+00  -7.9840005481702709e+00  -7.9666820619704888e+00  -7.9489154320085955e+00  -7.9311674465960724e+00  -7.9139035469882471e+00  -7.8975755567389143e+00  -7.8826098343130937e+00  -7.8693962539123703e+00  -7.8582784592242740e+00  -7.8495456674276536e+00  -7.8434248429296236e+00  -7.8400641866490641e+00  -7.8394587758145491e+00  -8.0683840449675426e+00  -8.0677649776478741e+00  -8.0640942119702430e+00  -8.0573801290904381e+00  -8.0478008529416911e+00  -8.0356207681791041e+00  -8.0211701425165813e+00  -8.0048355484651541e+00  -7.9870505885697991e+00  -7.9682851965412267e+00  -7.9490336850140162e+00  -7.9298020014922921e+00  -7.9110946300139613e+00  -7.8934015315159449e+00  -7.8771855037503791e+00  -7.8628703518605114e+00  -7.8508302231528297e+00  -7.8413800858852536e+00  -7.8347654347466129e+00  -7.8311407611055248e+00  -7.8304851668225899e+00  -8.0796749605632137e+00  -8.0790069577377501e+00  -8.0750107695740923e+00  -8.0676863674252797e+00  -8.0572225046768580e+00  -8.0439067290595734e+00  -8.0281012784549901e+00  -8.0102308007119483e+00  -7.9907712324838203e+00  -7.9702377710785797e+00  -7.9491718284573754e+00  -7.9281272818939383e+00  -7.9076563932135926e+00  -7.8882957560730276e+00  -7.8705526227819780e+00  -7.8548919549146774e+00  -7.8417244551330558e+00  -7.8313953656452124e+00  -7.8241717587755826e+00  -7.8202171266254892e+00  -7.8194985299772561e+00  -8.0930580657410935e+00  -8.0923277364677997e+00  -8.0879372434104386e+00  -8.0798816486806366e+00  -8.0683648255680822e+00  -8.0537019716769738e+00  -8.0362924779496812e+00  -8.0166053227130565e+00  -7.9951660018325352e+00  -7.9725428874925477e+00  -7.9493328073317366e+00  -7.9261460594628748e+00  -7.9035911552217746e+00  -7.8822595832597058e+00  -7.8627108872970712e+00  -7.8454583432420337e+00  -7.8309554286226533e+00  -7.8195827879850528e+00  -7.8116332570561848e+00  -7.8072830312586934e+00  -7.8064897144519874e+00  -8.1085677948250723e+00  -8.1077619888357919e+00  -8.1029078137514094e+00  -8.0939977526529265e+00  -8.0812555447372869e+00  -8.0650294170631458e+00  -8.0457618885450994e+00  -8.0239729475302575e+00  -8.0002449793462933e+00  -7.9752073419729665e+00  -7.9495203821095357e+00  -7.9238590533981386e+00  -7.8988963464054001e+00  -7.8752867336023336e+00  -7.8536498375389590e+00  -7.8345545425864440e+00  -7.8185037067600271e+00  -7.8059191623905404e+00  -7.7971244571029592e+00  -7.7923124922779277e+00  -7.7914329981147290e+00  -8.1262485045005644e+00  -8.1253539319089860e+00  -8.1199653943015448e+00  -8.1100745639530984e+00  -8.0959299470497008e+00  -8.0779188218046993e+00  -8.0565335150925783e+00  -8.0323522065118187e+00  -8.0060217206548003e+00  -7.9782401823911142e+00  -7.9497393585879355e+00  -7.9212668097299987e+00  -7.8935679648433510e+00  -7.8673682003928374e+00  -7.8433550142704949e+00  -7.8221604326731544e+00  -7.8043437788555172e+00  -7.7903745055656906e+00  -7.7806124244993704e+00  -7.7752713390111046e+00  -7.7742941539530594e+00  -8.1461461430235449e+00  -8.1451491267249505e+00  -8.1391536046784054e+00  -8.1281520709058643e+00  -8.1124230137072075e+00  -8.0923994249038227e+00  -8.0686308155792208e+00  -8.0417612599520343e+00  -8.0125098039891913e+00  -7.9816510560739271e+00  -7.9499958117817311e+00  -7.9183717815857149e+00  -7.8876043987789259e+00  -7.8584976106431181e+00  -7.8318145721056034e+00  -7.8082582581562443e+00  -7.7884520831988882e+00  -7.7729202494184078e+00  -7.7620650268422979e+00  -7.7561256418591267e+00  -7.7550390477079825e+00  -8.1682986881658994e+00  -8.1671849838759218e+00  -8.1605074472582348e+00  -8.1482612228381708e+00  -8.1307605880949012e+00  -8.1084917260220255e+00  -8.0820695030053145e+00  -8.0522121436397409e+00  -8.0197188784490390e+00  -7.9854483094420372e+00  -7.9502973565680080e+00  -7.9151807521449307e+00  -7.8810108489306696e+00  -7.8486773759302046e+00  -7.8190267995409766e+00  -7.7928411143016287e+00  -7.7708160732453777e+00  -7.7535385983967373e+00  -7.7414604492244106e+00  -7.7348513749438688e+00  -7.7336433718878377e+00  -8.1927249146038932e+00  -8.1914795660391135e+00  -8.1840422356176248e+00  -8.1704130674265159e+00  -8.1509489104136215e+00  -8.1261977594891803e+00  -8.0968490162463738e+00  -8.0637039278481790e+00  -8.0276499511570307e+00  -7.9896367249958420e+00  -7.9506534945377174e+00  -7.9117077705089125e+00  -7.8738046556058565e+00  -7.8379260625894425e+00  -7.8050090818161451e+00  -7.7759230168393341e+00  -7.7514449519232294e+00  -7.7322336014964872e+00  -7.7187984283022377e+00  -7.7114457483509060e+00  -7.7101040111441019e+00  -8.2194109952037486e+00  -8.2180182009181237e+00  -8.2097402585641888e+00  -8.1945855731346704e+00  -8.1729618584454631e+00  -8.1454891933128426e+00  -8.1129420518459874e+00  -8.0762142997573694e+00  -8.0362895794204956e+00  -7.9942147364278160e+00  -7.9510760597871037e+00  -7.9079778023443135e+00  -7.8660218986152151e+00  -7.8262874907700422e+00  -7.7898089194367337e+00  -7.7575512199593319e+00  -7.7303827286087889e+00  -7.7090445332979147e+00  -7.6941137282931669e+00  -7.6859407047210899e+00  -7.6844525450794556e+00  -8.2482943768702341e+00  -8.2467373429490394e+00  -8.2375345758415204e+00  -8.2207074575073573e+00  -8.1967251501556753e+00  -8.1662924968320105e+00  -8.1302814597149311e+00  -8.0896889978228117e+00  -8.0456025705472225e+00  -7.9991709277419121e+00  -7.9515797851510417e+00  -7.9040313305979630e+00  -7.8577257029862517e+00  -7.8138421605621833e+00  -7.7735177154405575e+00  -7.7378215455606245e+00  -7.7077243445975121e+00  -7.6840622637365614e+00  -7.6674924633398884e+00  -7.6584191415832814e+00  -7.6567714463285066e+00  -8.2792442958335819e+00  -8.2775050375671650e+00  -8.2672892301770045e+00  -8.2486382087921086e+00  -8.2220966222340035e+00  -8.1884702851413618e+00  -8.1487436886763511e+00  -8.1040284362510633e+00  -8.0555227316366604e+00  -8.0044795920070779e+00  -7.9521830099575208e+00  -7.8999301725610236e+00  -7.8490167486064992e+00  -7.8007217033411411e+00  -7.7562881740339265e+00  -7.7168976337688653e+00  -7.6836357607107910e+00  -7.6574494296513107e+00  -7.6390919795392165e+00  -7.6290345044818677e+00  -7.6272136066079081e+00  -8.3120382012593339e+00  -8.3100972351921296e+00  -8.2987750123358452e+00  -8.2781433007051586e+00  -8.2488414989162759e+00  -8.2117977702833116e+00  -8.1681278341631600e+00  -8.1190707733998924e+00  -8.0659411668589822e+00  -8.0100951056788929e+00  -7.9529085470861620e+00  -7.8957647954766372e+00  -7.8400465301238054e+00  -7.7871271523259633e+00  -7.7383563033146556e+00  -7.6950352183849970e+00  -7.6583791100082594e+00  -7.6294654120450911e+00  -7.6091651596994945e+00  -7.5980345076993832e+00  -7.5960259258761589e+00  -8.3463332229583749e+00  -8.3441690525264622e+00  -8.3316397035000698e+00  -8.3088633336018773e+00  -8.2766012986563613e+00  -8.2359330418679555e+00  -8.1881292230092164e+00  -8.1345706412345073e+00  -8.0766916268605513e+00  -8.0159448842649752e+00  -7.9537847160210884e+00  -7.8916633862302126e+00  -7.8310339034730845e+00  -7.7733518769836927e+00  -7.7200691582407934e+00  -7.6726127663488217e+00  -7.6323443056631906e+00  -7.6004973996625447e+00  -7.5780902331892204e+00  -7.5657899015390822e+00  -7.5635778491131536e+00  -8.3816316142157099e+00  -8.3792198454125657e+00  -8.3653713881304537e+00  -8.3402754405317285e+00  -8.3048546763013977e+00  -8.2603796947068169e+00  -8.2083064403338124e+00  -8.1501728506104794e+00  -8.0875325478654716e+00  -8.0219207630608711e+00  -7.9548465217481672e+00  -7.8878028089778160e+00  -7.8222853053478003e+00  -7.7598099451052587e+00  -7.7019195347027054e+00  -7.6501700799721393e+00  -7.6060888876016026e+00  -7.5710992378283937e+00  -7.5464075187663955e+00  -7.5328294625146741e+00  -7.5303959728450813e+00  -8.4172387554466805e+00  -8.4145505581983535e+00  -8.3992528729961293e+00  -8.3716446834081903e+00  -8.3328680480345465e+00  -8.2844401945594921e+00  -8.2280409064152469e+00  -8.1653807838926049e+00  -8.0981258111042802e+00  -8.0278688615540581e+00  -7.9561369038136851e+00  -7.8844212756448515e+00  -7.8142185919938196e+00  -7.7470702972897465e+00  -7.6845886998479527e+00  -7.6284566933868927e+00  -7.5803884337617724e+00  -7.5420404254974773e+00  -7.5148651110431555e+00  -7.4998828239743496e+00  -7.4972062516774383e+00  -8.4522116830679401e+00  -8.4492110826340827e+00  -8.4323042499993566e+00  -8.4019621735158232e+00  -8.3596332976010785e+00  -8.3071585043427216e+00  -8.2464888333914050e+00  -8.1795201776711757e+00  -8.1080131325104041e+00  -8.0335784539424804e+00  -7.9577078759379276e+00  -7.8818319082919430e+00  -7.8073894577634722e+00  -7.7358961344852588e+00  -7.6689976492353953e+00  -7.6084919662183923e+00  -7.5563006025178865e+00  -7.5143687234951244e+00  -7.4844765604788606e+00  -7.4679335650899503e+00  -7.4649860761174684e+00  -8.4852949447536865e+00  -8.4819339487612719e+00  -8.4632087692836571e+00  -8.4298650158701935e+00  -8.3837893058956183e+00  -8.3272512909347878e+00  -8.2625271761171373e+00  -8.1917010813304625e+00  -8.1165927054837983e+00  -8.0387712443757078e+00  -7.9596211984657019e+00  -7.8804351710102560e+00  -7.8025174573194427e+00  -7.7272867934533753e+00  -7.6563657851447191e+00  -7.5916383553573654e+00  -7.5352468315143488e+00  -7.4894917153093079e+00  -7.4565955335709599e+00  -7.4382864891421168e+00  -7.4350298913261899e+00  -8.5148383499421900e+00  -8.5110478299800612e+00  -8.4902135603900000e+00  -8.4535305106599612e+00  -8.4035238738646374e+00  -8.3430294093016375e+00  -8.2746990275333001e+00  -8.2007847181918994e+00  -8.1231017272299990e+00  -8.0430939312091372e+00  -7.9619479505119068e+00  -7.8807261300753870e+00  -7.8005052026050752e+00  -7.7225152351916648e+00  -7.6482722788355311e+00  -7.5796876264740600e+00  -7.5191167398893528e+00  -7.4692859105441798e+00  -7.4330161871490237e+00  -7.4126559849247489e+00  -7.4090347516103314e+00  -8.5386868171564974e+00  -8.5343583287333953e+00  -8.5109895364143640e+00  -8.4705330012205238e+00  -8.4164541251150400e+00  -8.3523172956678930e+00  -8.2811714823455702e+00  -8.2053687857654083e+00  -8.1266151848817998e+00  -8.0461191815910382e+00  -7.9647660032449776e+00  -7.8832894871713233e+00  -7.8024387268323760e+00  -7.7231467898097534e+00  -7.6467077636964671e+00  -7.5749548306310484e+00  -7.5104005554998210e+00  -7.4562475266992383e+00  -7.4161155088415116e+00  -7.3932884064988791e+00  -7.3892177143110951e+00  -8.5540238010539227e+00  -8.5489698976227277e+00  -8.5224204185257193e+00  -8.4776469987715988e+00  -8.4194905345806283e+00  -8.3523914821672118e+00  -8.2797328428204580e+00  -8.2038153033059835e+00  -8.1260777458685087e+00  -8.0473629653986460e+00  -7.9681540342675579e+00  -7.8887715814669503e+00  -7.8095491340710028e+00  -7.7310124687890394e+00  -7.6540889433581407e+00  -7.5803621597171524e+00  -7.5123513961457773e+00  -7.4537079640137378e+00  -7.4090695422790365e+00  -7.3831444381902855e+00  -7.3784886938443899e+00  -8.5571318315586140e+00  -8.5509893528618655e+00  -8.5202629544084516e+00  -8.4705803836326918e+00  -8.4087127375221637e+00  -8.3399883089278806e+00  -8.2678789572715718e+00  -8.1943589573334368e+00  -8.1203922699991242e+00  -8.0463286299034689e+00  -7.9721806022141202e+00  -7.8978154577039348e+00  -7.8231070389412896e+00  -7.7480925374982474e+00  -7.6731810178672148e+00  -7.5994638291010546e+00  -7.5291616398524805e+00  -7.4661481647634442e+00  -7.4162093016515449e+00  -7.3861979494207697e+00  -7.3807292592174756e+00  -8.5429930960330278e+00  -8.5349626611515177e+00  -8.4985741012785390e+00  -8.4436511255882127e+00  -8.3793493265148076e+00  -8.3114863432371084e+00  -8.2430701441968228e+00  -8.1753459398624422e+00  -8.1085903878482117e+00  -8.0425874473537657e+00  -7.9768871795672514e+00  -7.9109459682262688e+00  -7.8442175946996500e+00  -7.7762478981812659e+00  -7.7068288296205028e+00  -7.6362930195878285e+00  -7.5660726364407429e+00  -7.4996425108783411e+00  -7.4436571160667020e+00  -7.4079881127971463e+00  -7.4012967622744128e+00  -8.5045263662635282e+00  -8.4926524396624625e+00  -8.4487694299014535e+00  -8.3895648162473044e+00  -8.3261082322768054e+00  -8.2634567383252726e+00  -8.2032663750223591e+00  -8.1456475682312686e+00  -8.0900967259515735e+00  -8.0358960869101690e+00  -7.9822642693240340e+00  -7.9284014463801764e+00  -7.8734968122792068e+00  -7.8167362575317050e+00  -7.7573501533934692e+00  -7.6947785563224711e+00  -7.6291325387651261e+00  -7.5623423079063956e+00  -7.5005294091367922e+00  -7.4568076046787919e+00  -7.4480791153799037e+00  -8.4306726897044690e+00  -8.4101613536393778e+00  -8.3584230470374621e+00  -8.2999411206819023e+00  -8.2444001131849340e+00  -8.1938519880061840e+00  -8.1478156075784458e+00  -8.1052332324384935e+00  -8.0650487930803667e+00  -8.0263229919139416e+00  -7.9882142648494154e+00  -7.9499266705344596e+00  -7.9106507167287017e+00  -7.8695014012936326e+00  -7.8254568014418009e+00  -7.7773214495028746e+00  -7.7238227605905490e+00  -7.6642454223564922e+00  -7.6009754472780120e+00  -7.5468180759124595e+00  -7.5341359554267475e+00  -8.2990536708036782e+00  -8.2614624409885309e+00  -8.2116371596784230e+00  -8.1684722014260487e+00  -8.1332863802784257e+00  -8.1039504315423621e+00  -8.0785378107687755e+00  -8.0557015964588459e+00  -8.0345098494937748e+00  -8.0142775534553330e+00  -7.9944523803728300e+00  -7.9745366076600073e+00  -7.9540244241758140e+00  -7.9323370318637876e+00  -7.9087361776960829e+00  -7.8821874000013867e+00  -7.8511300185535298e+00  -7.8131454011124761e+00  -7.7650016599792346e+00  -7.7074297938323548e+00  -7.6864572642857967e+00  -8.0000000000000000e+00  -8.0000000000000000e+00  -8.0000000000000000e+00  -8.0000000000000000e+00  -8.0000000000000000e+00  -8.0000000000000000e+00  -8.0000000000000000e+00  -8.0000000000000000e+00  -8.0000000000000000e+00  -8.0000000000000000e+00  -8.0000000000000000e+00  -8.0000000000000000e+00  -8.0000000000000000e+00  -8.0000000000000000e+00  -8.0000000000000000e+00  -8.0000000000000000e+00  -8.0000000000000000e+00  -8.0000000000000000e+00  -8.0000000000000000e+00  -8.0000000000000000e+00  -8.0000000000000000e+00  </DataArray> 
</PointData> 
</Piece>
</UnstructuredGrid>
</VTKFile>