<?xml version="1.0"?>
<VTKFile type="UnstructuredGrid"  version="0.1"  >
<UnstructuredGrid>
<Piece  NumberOfPoints="651" NumberOfCells="1200">
<Points>
<DataArray  type="Float64"  NumberOfComponents="3"  format="ascii">0 0 0  50000 0 0  100000 0 0  150000 0 0  200000 0 0  250000 0 0  300000 0 0  350000 0 0  400000 0 0  450000 0 0  500000 0 0  550000 0 0  600000 0 0  650000 0 0  700000 0 0  750000 0 0  800000 0 0  850000 0 0  900000 0 0  950000 0 0  1000000 0 0  0 50000 0  50000 50000 0  100000 50000 0  150000 50000 0  200000 50000 0  250000 50000 0  300000 50000 0  350000 50000 0  400000 50000 0  450000 50000 0  500000 50000 0  550000 50000 0  600000 50000 0  650000 50000 0  700000 50000 0  750000 50000 0  800000 50000 0  850000 50000 0  900000 50000 0  950000 50000 0  1000000 50000 0  0 100000 0  50000 100000 0  100000 100000 0  150000 100000 0  200000 100000 0  250000 100000 0  300000 100000 0  350000 100000 0  400000 100000 0  450000 100000 0  500000 100000 0  550000 100000 0  600000 100000 0  650000 100000 0  700000 100000 0  750000 100000 0  800000 100000 0  850000 100000 0  900000 100000 0  950000 100000 0  1000000 100000 0  0 150000 0  50000 150000 0  100000 150000 0  150000 150000 0  200000 150000 0  250000 150000 0  300000 150000 0  350000 150000 0  400000 150000 0  450000 150000 0  500000 150000 0  550000 150000 0  600000 150000 0  650000 150000 0  700000 150000 0  750000 150000 0  800000 150000 0  850000 150000 0  900000 150000 0  950000 150000 0  1000000 150000 0  0 200000 0  50000 200000 0  100000 200000 0  150000 200000 0  200000 200000 0  250000 200000 0  300000 200000 0  350000 200000 0  400000 200000 0  450000 200000 0  500000 200000 0  550000 200000 0  600000 200000 0  650000 200000 0  700000 200000 0  750000 200000 0  800000 200000 0  850000 200000 0  900000 200000 0  950000 200000 0  1000000 200000 0  0 250000 0  50000 250000 0  100000 250000 0  150000 250000 0  200000 250000 0  250000 250000 0  300000 250000 0  350000 250000 0  400000 250000 0  450000 250000 0  500000 250000 0  550000 250000 0  600000 250000 0  650000 250000 0  700000 250000 0  750000 250000 0  800000 250000 0  850000 250000 0  900000 250000 0  950000 250000 0  1000000 250000 0  0 300000 0  50000 300000 0  100000 300000 0  150000 300000 0  200000 300000 0  250000 300000 0  300000 300000 0  350000 300000 0  400000 300000 0  450000 300000 0  500000 300000 0  550000 300000 0  600000 300000 0  650000 300000 0  700000 300000 0  750000 300000 0  800000 300000 0  850000 300000 0  900000 300000 0  950000 300000 0  1000000 300000 0  0 350000 0  50000 350000 0  100000 350000 0  150000 350000 0  200000 350000 0  250000 350000 0  300000 350000 0  350000 350000 0  400000 350000 0  450000 350000 0  500000 350000 0  550000 350000 0  600000 350000 0  650000 350000 0  700000 350000 0  750000 350000 0  800000 350000 0  850000 350000 0  900000 350000 0  950000 350000 0  1000000 350000 0  0 400000 0  50000 400000 0  100000 400000 0  150000 400000 0  200000 400000 0  250000 400000 0  300000 400000 0  350000 400000 0  400000 400000 0  450000 400000 0  500000 400000 0  550000 400000 0  600000 400000 0  650000 400000 0  700000 400000 0  750000 400000 0  800000 400000 0  850000 400000 0  900000 400000 0  950000 400000 0  1000000 400000 0  0 450000 0  50000 450000 0  100000 450000 0  150000 450000 0  200000 450000 0  250000 450000 0  300000 450000 0  350000 450000 0  400000 450000 0  450000 450000 0  500000 450000 0  550000 450000 0  600000 450000 0  650000 450000 0  700000 450000 0  750000 450000 0  800000 450000 0  850000 450000 0  900000 450000 0  950000 450000 0  1000000 450000 0  0 500000 0  50000 500000 0  100000 500000 0  150000 500000 0  200000 500000 0  250000 500000 0  300000 500000 0  350000 500000 0  400000 500000 0  450000 500000 0  500000 500000 0  550000 500000 0  600000 500000 0  650000 500000 0  700000 500000 0  750000 500000 0  800000 500000 0  850000 500000 0  900000 500000 0  950000 500000 0  1000000 500000 0  0 550000 0  50000 550000 0  100000 550000 0  150000 550000 0  200000 550000 0  250000 550000 0  300000 550000 0  350000 550000 0  400000 550000 0  450000 550000 0  500000 550000 0  550000 550000 0  600000 550000 0  650000 550000 0  700000 550000 0  750000 550000 0  800000 550000 0  850000 550000 0  900000 550000 0  950000 550000 0  1000000 550000 0  0 600000 0  50000 600000 0  100000 600000 0  150000 600000 0  200000 600000 0  250000 600000 0  300000 600000 0  350000 600000 0  400000 600000 0  450000 600000 0  500000 600000 0  550000 600000 0  600000 600000 0  650000 600000 0  700000 600000 0  750000 600000 0  800000 600000 0  850000 600000 0  900000 600000 0  950000 600000 0  1000000 600000 0  0 650000 0  50000 650000 0  100000 650000 0  150000 650000 0  200000 650000 0  250000 650000 0  300000 650000 0  350000 650000 0  400000 650000 0  450000 650000 0  500000 650000 0  550000 650000 0  600000 650000 0  650000 650000 0  700000 650000 0  750000 650000 0  800000 650000 0  850000 650000 0  900000 650000 0  950000 650000 0  1000000 650000 0  0 700000 0  50000 700000 0  100000 700000 0  150000 700000 0  200000 700000 0  250000 700000 0  300000 700000 0  350000 700000 0  400000 700000 0  450000 700000 0  500000 700000 0  550000 700000 0  600000 700000 0  650000 700000 0  700000 700000 0  750000 700000 0  800000 700000 0  850000 700000 0  900000 700000 0  950000 700000 0  1000000 700000 0  0 750000 0  50000 750000 0  100000 750000 0  150000 750000 0  200000 750000 0  250000 750000 0  300000 750000 0  350000 750000 0  400000 750000 0  450000 750000 0  500000 750000 0  550000 750000 0  600000 750000 0  650000 750000 0  700000 750000 0  750000 750000 0  800000 750000 0  850000 750000 0  900000 750000 0  950000 750000 0  1000000 750000 0  0 800000 0  50000 800000 0  100000 800000 0  150000 800000 0  200000 800000 0  250000 800000 0  300000 800000 0  350000 800000 0  400000 800000 0  450000 800000 0  500000 800000 0  550000 800000 0  600000 800000 0  650000 800000 0  700000 800000 0  750000 800000 0  800000 800000 0  850000 800000 0  900000 800000 0  950000 800000 0  1000000 800000 0  0 850000 0  50000 850000 0  100000 850000 0  150000 850000 0  200000 850000 0  250000 850000 0  300000 850000 0  350000 850000 0  400000 850000 0  450000 850000 0  500000 850000 0  550000 850000 0  600000 850000 0  650000 850000 0  700000 850000 0  750000 850000 0  800000 850000 0  850000 850000 0  900000 850000 0  950000 850000 0  1000000 850000 0  0 900000 0  50000 900000 0  100000 900000 0  150000 900000 0  200000 900000 0  250000 900000 0  300000 900000 0  350000 900000 0  400000 900000 0  450000 900000 0  500000 900000 0  550000 900000 0  600000 900000 0  650000 900000 0  700000 900000 0  750000 900000 0  800000 900000 0  850000 900000 0  900000 900000 0  950000 900000 0  1000000 900000 0  0 950000 0  50000 950000 0  100000 950000 0  150000 950000 0  200000 950000 0  250000 950000 0  300000 950000 0  350000 950000 0  400000 950000 0  450000 950000 0  500000 950000 0  550000 950000 0  600000 950000 0  650000 950000 0  700000 950000 0  750000 950000 0  800000 950000 0  850000 950000 0  900000 950000 0  950000 950000 0  1000000 950000 0  0 1000000 0  50000 1000000 0  100000 1000000 0  150000 1000000 0  200000 1000000 0  250000 1000000 0  300000 1000000 0  350000 1000000 0  400000 1000000 0  450000 1000000 0  500000 1000000 0  550000 1000000 0  600000 1000000 0  650000 1000000 0  700000 1000000 0  750000 1000000 0  800000 1000000 0  850000 1000000 0  900000 1000000 0  950000 1000000 0  1000000 1000000 0  0 1050000 0  50000 1050000 0  100000 1050000 0  150000 1050000 0  200000 1050000 0  250000 1050000 0  300000 1050000 0  350000 1050000 0  400000 1050000 0  450000 1050000 0  500000 1050000 0  550000 1050000 0  600000 1050000 0  650000 1050000 0  700000 1050000 0  750000 1050000 0  800000 1050000 0  850000 1050000 0  900000 1050000 0  950000 1050000 0  1000000 1050000 0  0 1100000 0  50000 1100000 0  100000 1100000 0  150000 1100000 0  200000 1100000 0  250000 1100000 0  300000 1100000 0  350000 1100000 0  400000 1100000 0  450000 1100000 0  500000 1100000 0  550000 1100000 0  600000 1100000 0  650000 1100000 0  700000 1100000 0  750000 1100000 0  800000 1100000 0  850000 1100000 0  900000 1100000 0  950000 1100000 0  1000000 1100000 0  0 1150000 0  50000 1150000 0  100000 1150000 0  150000 1150000 0  200000 1150000 0  250000 1150000 0  300000 1150000 0  350000 1150000 0  400000 1150000 0  450000 1150000 0  500000 1150000 0  550000 1150000 0  600000 1150000 0  650000 1150000 0  700000 1150000 0  750000 1150000 0  800000 1150000 0  850000 1150000 0  900000 1150000 0  950000 1150000 0  1000000 1150000 0  0 1200000 0  50000 1200000 0  100000 1200000 0  150000 1200000 0  200000 1200000 0  250000 1200000 0  300000 1200000 0  350000 1200000 0  400000 1200000 0  450000 1200000 0  500000 1200000 0  550000 1200000 0  600000 1200000 0  650000 1200000 0  700000 1200000 0  750000 1200000 0  800000 1200000 0  850000 1200000 0  900000 1200000 0  950000 1200000 0  1000000 1200000 0  0 1250000 0  50000 1250000 0  100000 1250000 0  150000 1250000 0  200000 1250000 0  250000 1250000 0  300000 1250000 0  350000 1250000 0  400000 1250000 0  450000 1250000 0  500000 1250000 0  550000 1250000 0  600000 1250000 0  650000 1250000 0  700000 1250000 0  750000 1250000 0  800000 1250000 0  850000 1250000 0  900000 1250000 0  950000 1250000 0  1000000 1250000 0  0 1300000 0  50000 1300000 0  100000 1300000 0  150000 1300000 0  200000 1300000 0  250000 1300000 0  300000 1300000 0  350000 1300000 0  400000 1300000 0  450000 1300000 0  500000 1300000 0  550000 1300000 0  600000 1300000 0  650000 1300000 0  700000 1300000 0  750000 1300000 0  800000 1300000 0  850000 1300000 0  900000 1300000 0  950000 1300000 0  1000000 1300000 0  0 1350000 0  50000 1350000 0  100000 1350000 0  150000 1350000 0  200000 1350000 0  250000 1350000 0  300000 1350000 0  350000 1350000 0  400000 1350000 0  450000 1350000 0  500000 1350000 0  550000 1350000 0  600000 1350000 0  650000 1350000 0  700000 135
[...]
<PointData  Scalars="f_21"> 
<DataArray  type="Float64"  Name="f_21"  format="ascii">-8.1114018955158418e+00  -8.1098407782194162e+00  -8.1021677103749532e+00  -8.0883588924859424e+00  -8.0687711209269946e+00  -8.0439246550579035e+00  -8.0144790385357076e+00  -7.9812142361641314e+00  -7.9450096507670587e+00  -7.9068206193288768e+00  -7.8676529755217066e+00  -7.8285363669726724e+00  -7.7904970224776724e+00  -7.7545306723915246e+00  -7.7215763519200689e+00  -7.6924919163549692e+00  -7.6680324746782800e+00  -7.6488341299067688e+00  -7.6354068204474217e+00  -7.6281092163565276e+00  -7.6265260554801655e+00  -8.1128756054858560e+00  -8.1113494097603844e+00  -8.1035669987901588e+00  -8.0896669404496162e+00  -8.0699774095702175e+00  -8.0450090068431255e+00  -8.0154189460343286e+00  -7.9819884368016432e+00  -7.9455999502888712e+00  -7.9072129140572311e+00  -7.8678378596070875e+00  -7.8285094694472974e+00  -7.7902591250019615e+00  -7.7540876110920269e+00  -7.7209386550541907e+00  -7.6916739834910288e+00  -7.6670504894444749e+00  -7.6476993835213030e+00  -7.6341032764614392e+00  -7.6265492072858185e+00  -7.6249658168853784e+00  -8.1200726811431103e+00  -8.1186521473582491e+00  -8.1106909209211420e+00  -8.0963718371624882e+00  -8.0760878877318483e+00  -8.0503757061409420e+00  -8.0199123193643480e+00  -7.9854999580933290e+00  -7.9480449172337657e+00  -7.9085329750502575e+00  -7.8680027699931463e+00  -7.8275179919299793e+00  -7.7881390779471422e+00  -7.7508950816464282e+00  -7.7167564038641387e+00  -7.6866091168054940e+00  -7.6612316831003673e+00  -7.6412748793257546e+00  -7.6272449390388992e+00  -7.6194825235833488e+00  -7.6180615653435115e+00  -8.1329034185744060e+00  -8.1314984993615997e+00  -8.1232384719048980e+00  -8.1082388164727774e+00  -8.0869326413459834e+00  -8.0599059681939433e+00  -8.0278808334626568e+00  -7.9917044603883785e+00  -7.9523304736293641e+00  -7.9107947366058831e+00  -7.8681881412670194e+00  -7.8256277694051946e+00  -7.7842274041900907e+00  -7.7450682117708913e+00  -7.7091704079849226e+00  -7.6774668350646831e+00  -7.6507795955517572e+00  -7.6298010104009890e+00  -7.6150782717785654e+00  -7.6069851593160012e+00  -7.6055624583402324e+00  -8.1511686543059998e+00  -8.1497234966285763e+00  -8.1409929679846584e+00  -8.1250341160852635e+00  -8.1022970810848349e+00  -8.0734183174705798e+00  -8.0391807728458424e+00  -8.0004974430543303e+00  -7.9583918176860227e+00  -7.9139732146164716e+00  -7.8684086069235546e+00  -7.8228924680133147e+00  -7.7786157911230891e+00  -7.7367352477517111e+00  -7.6983434215347435e+00  -7.6644411451985759e+00  -7.6359130679940002e+00  -7.6135070949398083e+00  -7.5978142811529361e+00  -7.5892241639226397e+00  -7.5877219483237983e+00  -8.1747551211115486e+00  -8.1732278127970552e+00  -8.1638483286963464e+00  -8.1466348505504094e+00  -8.1220547432859629e+00  -8.0907965229807193e+00  -8.0537146825001411e+00  -8.0118049774592759e+00  -7.9661811302074303e+00  -7.9180480051743878e+00  -7.8686716011265450e+00  -7.8193470337379862e+00  -7.7713656236930753e+00  -7.7259820847388605e+00  -7.6843827712477495e+00  -7.6476559675131579e+00  -7.6167650844956754e+00  -7.5925245735732378e+00  -7.5755731060159990e+00  -7.5663151649646867e+00  -7.5646910341054827e+00  -8.2036292166453073e+00  -8.2019840529458161e+00  -8.1917787128137665e+00  -8.1730074507058426e+00  -8.1461641274206933e+00  -8.1119968174431101e+00  -8.0714425579735742e+00  -8.0255953480665738e+00  -7.9756779516456575e+00  -7.9230116283452166e+00  -7.8689833480348970e+00  -7.8150112470137083e+00  -7.7625092551604817e+00  -7.7128517934449556e+00  -7.6673394178623688e+00  -7.6271662584678186e+00  -7.5933898473639232e+00  -7.5669026007783780e+00  -7.5483985143772578e+00  -7.5383042352400613e+00  -7.5365262308389074e+00  -8.2378206721721696e+00  -8.2360245447878135e+00  -8.2248179025328216e+00  -8.2041808066349233e+00  -8.1746456037918716e+00  -8.1370314816543239e+00  -8.0923711468478050e+00  -8.0418726619143115e+00  -7.9868861403647413e+00  -7.9288693095060321e+00  -7.8693512206459548e+00  -7.8098945857751882e+00  -7.7520574476568749e+00  -7.6973549024582901e+00  -7.6472215892485602e+00  -7.6029756327384845e+00  -7.5657844504973646e+00  -7.5366314551086928e+00  -7.5162767521130389e+00  -7.5051790337475905e+00  -7.5032182700631855e+00  -8.2774044111190044e+00  -8.2754250310839073e+00  -8.2630410223113273e+00  -8.2402246912611083e+00  -8.2075594801541971e+00  -8.1659496278469934e+00  -8.1165387457140294e+00  -8.0606658783219309e+00  -7.9998270204450579e+00  -7.9356361067317378e+00  -7.8697847474664382e+00  -7.8040010392572556e+00  -7.7400079347652539e+00  -7.6794816490256572e+00  -7.6240105923002561e+00  -7.5750553394413931e+00  -7.5339099434411416e+00  -7.5016635711017781e+00  -7.4791552384605096e+00  -7.4668863058527801e+00  -7.4647147406286454e+00  -8.3224810983772102e+00  -8.3202860029470607e+00  -8.3065458490181161e+00  -8.2812300005424042e+00  -8.2449859184140752e+00  -8.1988184850739199e+00  -8.1439992887180725e+00  -8.0820165666664785e+00  -8.0145312625452156e+00  -7.9433331300793473e+00  -7.8702962328811275e+00  -7.7973340654854164e+00  -7.7263545263019866e+00  -7.6592148992348310e+00  -7.5976770278859442e+00  -7.5433629752260378e+00  -7.4977113999826930e+00  -7.4619336491904651e+00  -7.4369619943836893e+00  -7.4233515107552552e+00  -7.4209411120907474e+00  -8.3731556494689485e+00  -8.3707115658080866e+00  -8.3554321157017064e+00  -8.3272880699284570e+00  -8.2870045503149825e+00  -8.2357042838257257e+00  -8.1748056829405780e+00  -8.1059657155307061e+00  -8.0310299118753665e+00  -7.9519832520143723e+00  -7.8709013490625566e+00  -7.7899020107116730e+00  -7.7110970575138547e+00  -7.6365440962877127e+00  -7.5681979893624689e+00  -7.5078619985803678e+00  -7.4571387267611007e+00  -7.4173798942601996e+00  -7.3896269827582399e+00  -7.3745005836070119e+00  -7.3718229423142354e+00  -8.4295127201713314e+00  -8.4267851125924249e+00  -8.4097776364666910e+00  -8.3784672461507164e+00  -8.3336718068986713e+00  -8.2766511272484475e+00  -8.2089912938955294e+00  -8.1325389302809956e+00  -8.0493442250491185e+00  -7.9616062285613509e+00  -7.8716198485607931e+00  -7.7817243634106958e+00  -7.6942527884053202e+00  -7.6114811044756019e+00  -7.5355764200834816e+00  -7.4685435531690718e+00  -7.4121699521934197e+00  -7.3679680239784657e+00  -7.3371065072223081e+00  -7.3202847186191340e+00  -7.3173108485308722e+00  -8.4915880625979057e+00  -8.4885407784307940e+00  -8.4696100978919233e+00  -8.4347852133487855e+00  -8.3849942454001241e+00  -8.3216561879216844e+00  -8.2465481853575451e+00  -8.1617289788630991e+00  -8.0694736524674724e+00  -7.9722129432823561e+00  -7.8724764790331268e+00  -7.7728392847721759e+00  -7.6758700415322139e+00  -7.5840790602503354e+00  -7.4998640213614536e+00  -7.4254521862912890e+00  -7.3628386222846443e+00  -7.3137195116069256e+00  -7.2794118657500650e+00  -7.2607092824585546e+00  -7.2574095086356678e+00  -8.5593344961699067e+00  -8.5559294509194821e+00  -8.5348732131196563e+00  -8.4961755562591108e+00  -8.4408961720975348e+00  -8.3706395035116810e+00  -8.2874005493066214e+00  -8.1934744309570444e+00  -8.0913811123961867e+00  -7.9837983692521926e+00  -7.8735021613174467e+00  -7.7633129351414851e+00  -7.6560450232478354e+00  -7.5544555389367352e+00  -7.4611892857297413e+00  -7.3787171687268147e+00  -7.3092669822425709e+00  -7.2547455804809422e+00  -7.2166435861107230e+00  -7.1958681098263861e+00  -7.1922119754589531e+00  -8.6325810858668355e+00  -8.6287779240097819e+00  -8.6053857184978089e+00  -8.5624468428986340e+00  -8.5011796705380362e+00  -8.4234064449860497e+00  -8.3313715492238263e+00  -8.2276329342657242e+00  -8.1149745454739683e+00  -7.9963327564055113e+00  -7.8747354877584037e+00  -7.7532511978673266e+00  -7.6349429334667045e+00  -7.5228215630754152e+00  -7.4197924736955372e+00  -7.3285913596820373e+00  -7.2517068393886861e+00  -7.1912886714523552e+00  -7.1490327682893309e+00  -7.1259845962006718e+00  -7.1219407112316429e+00  -8.7109839343404030e+00  -8.7067395749950354e+00  -8.6807914160491109e+00  -8.6332321796831550e+00  -8.5654747968840930e+00  -8.4796005998355959e+00  -8.3781415143365123e+00  -8.2639474509870094e+00  -8.1400835905988025e+00  -8.0097504770662038e+00  -7.8762245961010642e+00  -7.7428144776648100e+00  -7.6128246290129153e+00  -7.4895182244819667e+00  -7.3760696714950313e+00  -7.2754999228187289e+00  -7.1905903677658465e+00  -7.1237734346046091e+00  -7.0769913289877522e+00  -7.0514612095954678e+00  -7.0469969340439604e+00  -8.7939667583252987e+00  -8.7892346804335073e+00  -8.7604980959359704e+00  -8.7079267230522426e+00  -8.6331772062491900e+00  -8.5386443709455317e+00  -8.4271950932815169e+00  -8.3020035717577141e+00  -8.1664301149913587e+00  -8.0239359149471827e+00  -7.8780294653071543e+00  -7.7322362876772690e+00  -7.5900802223610757e+00  -7.4550629281135699e+00  -7.3306284400330961e+00  -7.2201016823988100e+00  -7.1265936383209976e+00  -7.0528697743234776e+00  -7.0011733176750539e+00  -6.9729393214784094e+00  -6.9680201232261840e+00  -8.8806490906764566e+00  -8.8753781154584441e+00  -8.8436026416192188e+00  -8.7856099628580626e+00  -8.7033698057775588e+00  -8.5996640756198044e+00  -8.4777546877858807e+00  -8.3411759396032732e+00  -8.1935913548112111e+00  -8.0387058099607760e+00  -7.8802246502207298e+00  -7.7218462676464146e+00  -7.5672709660792208e+00  -7.4202073868684533e+00  -7.2843579213852623e+00  -7.1633664985347911e+00  -7.0607163802890751e+00  -6.9795711726774643e+00  -6.9225500242363038e+00  -6.8913716629688233e+00  -6.8859599049310054e+00  -8.9697594400234397e+00  -8.9638915986005330e+00  -8.9287987890861995e+00  -8.8649486002624283e+00  -8.7747241530015554e+00  -8.6613958207782034e+00  -8.5286974224344654e+00  -8.3805620732203199e+00  -8.2209547652763550e+00  -8.0537876700507152e+00  -7.8829024011616928e+00  -7.7120979611362053e+00  -7.5451803849519514e+00  -7.3860092830332338e+00  -7.2385164505774560e+00  -7.1066726919796190e+00  -6.9943824712642302e+00  -6.9052925709794284e+00  -6.8425024681916700e+00  -6.8081103591649832e+00  -6.8021631371803259e+00  -9.0595298758929150e+00  -9.0529966436206024e+00  -9.0142626090594895e+00  -8.9440742997895715e+00  -8.8453761903907751e+00  -8.7220681256918891e+00  -8.5784534359380160e+00  -8.4189028956945915e+00  -8.2476646810169640e+00  -8.0687944054359750e+00  -7.8861759682266674e+00  -7.7036008876119082e+00  -7.5248744917458179e+00  -7.3539185403014722e+00  -7.1948393922139857e+00  -7.0519291312303594e+00  -6.9295670219338126e+00  -6.8319937663259225e+00  -6.7629363291324811e+00  -6.7250146053854341e+00  -6.7184800431412715e+00  -9.1475669444965568e+00  -9.1402825403830619e+00  -9.0975082668871448e+00  -9.0204281012146996e+00  -8.9127695386433761e+00  -8.7792576206541462e+00  -8.6248851300203597e+00  -8.4544918004304943e+00  -8.2725631203313572e+00  -8.0831965123945775e+00  -7.8901826165146636e+00  -7.6971547939633673e+00  -7.5077684082259157e+00  -7.3258766416440118e+00  -7.1556684028936637e+00  -7.0017267677201751e+00  -6.8689577924118073e+00  -6.7623370606516611e+00  -6.6864270013481075e+00  -6.6445840666333797e+00  -6.6373951125089947e+00  -9.2306908843432591e+00  -9.2225401361341675e+00  -9.1752018978957359e+00  -9.0905591649612898e+00  -8.9734581995048117e+00  -8.8297162100758548e+00  -8.6651515631201352e+00  -8.4850793793105783e+00  -8.2941314084352253e+00  -8.0962953440111960e+00  -7.8950854096207657e+00  -7.6937809037344529e+00  -7.4956917824692759e+00  -7.3044220210117619e+00  -7.1240992608201417e+00  -6.9595233268315697e+00  -6.8161611014079710e+00  -6.6998926518790078e+00  -6.6164073474078489e+00  -6.5701278966117345e+00  -6.5621920229755650e+00  -9.3047294645569121e+00  -9.2955450340015631e+00  -9.2429122854232109e+00  -9.1498588254883977e+00  -9.0228601504011507e+00  -8.8691741700961515e+00  -8.6955719327617338e+00  -8.5077909353895098e+00  -8.3104469080172283e+00  -8.1072047497988358e+00  -7.9010720931149461e+00  -7.6947398331456984e+00  -7.4909366084239615e+00  -7.2927840098028698e+00  -7.1041361832552763e+00  -6.9298605020576831e+00  -6.7759649807047255e+00  -6.6494134835523226e+00  -6.5574201951035738e+00  -6.5059867440372239e+00  -6.4971687175179689e+00  -9.3642417168506515e+00  -9.3537586672037278e+00  -9.2947588629098270e+00  -9.1922007930219714e+00  -9.0549572751969230e+00  -8.8921387748885135e+00  -8.7115213155213524e+00  -8.5190911520029804e+00  -8.3191811432762837e+00  -8.1148539997609834e+00  -7.9083484453679649e+00  -7.7015181596568336e+00  -7.4962568592105079e+00  -7.2949288009841178e+00  -7.1008212183265114e+00  -6.9186004992107266e+00  -6.7546730558036510e+00  -6.6172153366748896e+00  -6.5154766364814867e+00  -6.4578403496599668e+00  -6.4479326882486623e+00  -9.4021248043531163e+00  -9.3898813916388697e+00  -9.3228812522271944e+00  -9.2094465150412859e+00  -9.0619551686125899e+00  -8.8917425597373896e+00  -8.7074269307361938e+00  -8.5148570261289755e+00  -8.3176819302756204e+00  -8.1180320208791716e+00  -7.9171225048134390e+00  -7.7157560777257608e+00  -7.5147693054789615e+00  -7.3154895095940278e+00  -7.1202690058848699e+00  -6.9331365609050026e+00  -6.7605139065012185e+00  -6.6117205605032838e+00  -6.4986008650423663e+00  -6.4331662134049736e+00  -6.4218361152781860e+00  -9.4090121559046267e+00  -9.3941074558858961e+00  -9.3165843349675104e+00  -9.1907756252754336e+00  -9.0339749640942575e+00  -8.8597685218240319e+00  -8.6769911554626535e+00  -8.4906550952066784e+00  -8.3031989070478094e+00  -8.1154990621605183e+00  -7.9275757468773236e+00  -7.7390807007214537e+00  -7.5496829654426252e+00  -7.3594674985695772e+00  -7.1694666359215908e+00  -6.9824533552046510e+00  -6.8040863106669951e+00  -6.6442526545186542e+00  -6.5177283200481657e+00  -6.4419919228763298e+00  -6.4286783775554595e+00  -9.3722700401024390e+00  -9.3527074460670931e+00  -9.2608966061999656e+00  -9.1218775291629441e+00  -8.9590119578275367e+00  -8.7871198114760247e+00  -8.6138473508473705e+00  -8.4423491361181533e+00  -8.2733164821921594e+00  -8.1061901299728714e+00  -7.9398182289025812e+00  -7.7728118285264163e+00  -7.6037752448709170e+00  -7.4315458437355097e+00  -7.2555858149630961e+00  -7.0767338823252723e+00  -6.8986355796005920e+00  -6.7301613350142508e+00  -6.5883150496222944e+00  -6.4982867553751795e+00  -6.4819776221752159e+00  -9.2740870253247003e+00  -9.2449472923005747e+00  -9.1342032791129508e+00  -8.9844062826860469e+00  -8.8237865913544962e+00  -8.6652226273001780e+00  -8.5129199014047021e+00  -8.3671491930174859e+00  -8.2266224846775682e+00  -8.0895106557472065e+00  -7.9538251610281341e+00  -7.8175313207791177e+00  -7.6785657504351992e+00  -7.5348544282196794e+00  -7.3844330644699552e+00  -7.2258674282576747e+00  -7.0594319622052257e+00  -6.8900520600692321e+00  -6.7333899316388548e+00  -6.6229619142106708e+00  -6.6016338830518313e+00  -9.0866974076288454e+00  -9.0358431787010467e+00  -8.9052484348279730e+00  -8.7573434039062459e+00  -8.6168588129638799e+00  -8.4890429437176156e+00  -8.3726738034401524e+00  -8.2650590223049960e+00  -8.1635133248329925e+00  -8.0656512888811616e+00  -7.9693375080152915e+00  -7.8725527241412898e+00  -7.7732421857680016e+00  -7.6691568424456822e+00  -7.5576955759378093e+00  -7.4358102354798667e+00  -7.3002508338638084e+00  -7.1491895669065828e+00  -6.9887460860726858e+00  -6.8517605474071779e+00  -6.8205992616777085e+00  -8.7540872380444448e+00  -8.6599239711098850e+00  -8.5341400439579029e+00  -8.4250181886271367e+00  -8.3360932059229693e+00  -8.2619975490040396e+00  -8.1978400898103168e+00  -8.1401999089529529e+00  -8.0867130630445008e+00  -8.0356444974146672e+00  -7.9855966169310761e+00  -7.9353102643202140e+00  -7.8835050660359531e+00  -7.8287141049664228e+00  -7.7690633472594737e+00  -7.7019223549710016e+00  -7.6233167503236468e+00  -7.5270840221372941e+00  -7.4050090733495217e+00  -7.2590745376925465e+00  -7.2069513644513004e+00  -8.0000000000000000e+00  -8.0000000000000000e+00  -8.0000000000000000e+00  -8.0000000000000000e+00  -8.0000000000000000e+00  -8.0000000000000000e+00  -8.0000000000000000e+00  -8.0000000000000000e+00  -8.0000000000000000e+00  -8.0000000000000000e+00  -8.0000000000000000e+00  -8.0000000000000000e+00  -8.0000000000000000e+00  -8.0000000000000000e+00  -8.0000000000000000e+00  -8.0000000000000000e+00  -8.0000000000000000e+00  -8.0000000000000000e+00  -8.0000000000000000e+00  -8.0000000000000000e+00  -8.0000000000000000e+00  </DataArray> 
</PointData> 
</Piece>
</UnstructuredGrid>
</VTKFile>