<?xml version="1.0"?>
<VTKFile type="UnstructuredGrid"  version="0.1"  >
<UnstructuredGrid>
<Piece  NumberOfPoints="651" NumberOfCells="1200">
<Points>
<DataArray  type="Float64"  NumberOfComponents="3"  format="ascii">0 0 0  50000 0 0  100000 0 0  150000 0 0  200000 0 0  250000 0 0  300000 0 0  350000 0 0  400000 0 0  450000 0 0  500000 0 0  550000 0 0  600000 0 0  650000 0 0  700000 0 0  750000 0 0  800000 0 0  850000 0 0  900000 0 0  950000 0 0  1000000 0 0  0 50000 0  50000 50000 0  100000 50000 0  150000 50000 0  200000 50000 0  250000 50000 0  300000 50000 0  350000 50000 0  400000 50000 0  450000 50000 0  500000 50000 0  550000 50000 0  600000 50000 0  650000 50000 0  700000 50000 0  750000 50000 0  800000 50000 0  850000 50000 0  900000 50000 0  950000 50000 0  1000000 50000 0  0 100000 0  50000 100000 0  100000 100000 0  150000 100000 0  200000 100000 0  250000 100000 0  300000 100000 0  350000 100000 0  400000 100000 0  450000 100000 0  500000 100000 0  550000 100000 0  600000 100000 0  650000 100000 0  700000 100000 0  750000 100000 0  800000 100000 0  850000 100000 0  900000 100000 0  950000 100000 0  1000000 100000 0  0 150000 0  50000 150000 0  100000 150000 0  150000 150000 0  200000 150000 0  250000 150000 0  300000 150000 0  350000 150000 0  400000 150000 0  450000 150000 0  500000 150000 0  550000 150000 0  600000 150000 0  650000 150000 0  700000 150000 0  750000 150000 0  800000 150000 0  850000 150000 0  900000 150000 0  950000 150000 0  1000000 150000 0  0 200000 0  50000 200000 0  100000 200000 0  150000 200000 0  200000 200000 0  250000 200000 0  300000 200000 0  350000 200000 0  400000 200000 0  450000 200000 0  500000 200000 0  550000 200000 0  600000 200000 0  650000 200000 0  700000 200000 0  750000 200000 0  800000 200000 0  850000 200000 0  900000 200000 0  950000 200000 0  1000000 200000 0  0 250000 0  50000 250000 0  100000 250000 0  150000 250000 0  200000 250000 0  250000 250000 0  300000 250000 0  350000 250000 0  400000 250000 0  450000 250000 0  500000 250000 0  550000 250000 0  600000 250000 0  650000 250000 0  700000 250000 0  750000 250000 0  800000 250000 0  850000 250000 0  900000 250000 0  950000 250000 0  1000000 250000 0  0 300000 0  50000 300000 0  100000 300000 0  150000 300000 0  200000 300000 0  250000 300000 0  300000 300000 0  350000 300000 0  400000 300000 0  450000 300000 0  500000 300000 0  550000 300000 0  600000 300000 0  650000 300000 0  700000 300000 0  750000 300000 0  800000 300000 0  850000 300000 0  900000 300000 0  950000 300000 0  1000000 300000 0  0 350000 0  50000 350000 0  100000 350000 0  150000 350000 0  200000 350000 0  250000 350000 0  300000 350000 0  350000 350000 0  400000 350000 0  450000 350000 0  500000 350000 0  550000 350000 0  600000 350000 0  650000 350000 0  700000 350000 0  750000 350000 0  800000 350000 0  850000 350000 0  900000 350000 0  950000 350000 0  1000000 350000 0  0 400000 0  50000 400000 0  100000 400000 0  150000 400000 0  200000 400000 0  250000 400000 0  300000 400000 0  350000 400000 0  400000 400000 0  450000 400000 0  500000 400000 0  550000 400000 0  600000 400000 0  650000 400000 0  700000 400000 0  750000 400000 0  800000 400000 0  850000 400000 0  900000 400000 0  950000 400000 0  1000000 400000 0  0 450000 0  50000 450000 0  100000 450000 0  150000 450000 0  200000 450000 0  250000 450000 0  300000 450000 0  350000 450000 0  400000 450000 0  450000 450000 0  500000 450000 0  550000 450000 0  600000 450000 0  650000 450000 0  700000 450000 0  750000 450000 0  800000 450000 0  850000 450000 0  900000 450000 0  950000 450000 0  1000000 450000 0  0 500000 0  50000 500000 0  100000 500000 0  150000 500000 0  200000 500000 0  250000 500000 0  300000 500000 0  350000 500000 0  400000 500000 0  450000 500000 0  500000 500000 0  550000 500000 0  600000 500000 0  650000 500000 0  700000 500000 0  750000 500000 0  800000 500000 0  850000 500000 0  900000 500000 0  950000 500000 0  1000000 500000 0  0 550000 0  50000 550000 0  100000 550000 0  150000 550000 0  200000 550000 0  250000 550000 0  300000 550000 0  350000 550000 0  400000 550000 0  450000 550000 0  500000 550000 0  550000 550000 0  600000 550000 0  650000 550000 0  700000 550000 0  750000 550000 0  800000 550000 0  850000 550000 0  900000 550000 0  950000 550000 0  1000000 550000 0  0 600000 0  50000 600000 0  100000 600000 0  150000 600000 0  200000 600000 0  250000 600000 0  300000 600000 0  350000 600000 0  400000 600000 0  450000 600000 0  500000 600000 0  550000 600000 0  600000 600000 0  650000 600000 0  700000 600000 0  750000 600000 0  800000 600000 0  850000 600000 0  900000 600000 0  950000 600000 0  1000000 600000 0  0 650000 0  50000 650000 0  100000 650000 0  150000 650000 0  200000 650000 0  250000 650000 0  300000 650000 0  350000 650000 0  400000 650000 0  450000 650000 0  500000 650000 0  550000 650000 0  600000 650000 0  650000 650000 0  700000 650000 0  750000 650000 0  800000 650000 0  850000 650000 0  900000 650000 0  950000 650000 0  1000000 650000 0  0 700000 0  50000 700000 0  100000 700000 0  150000 700000 0  200000 700000 0  250000 700000 0  300000 700000 0  350000 700000 0  400000 700000 0  450000 700000 0  500000 700000 0  550000 700000 0  600000 700000 0  650000 700000 0  700000 700000 0  750000 700000 0  800000 700000 0  850000 700000 0  900000 700000 0  950000 700000 0  1000000 700000 0  0 750000 0  50000 750000 0  100000 750000 0  150000 750000 0  200000 750000 0  250000 750000 0  300000 750000 0  350000 750000 0  400000 750000 0  450000 750000 0  500000 750000 0  550000 750000 0  600000 750000 0  650000 750000 0  700000 750000 0  750000 750000 0  800000 750000 0  850000 750000 0  900000 750000 0  950000 750000 0  1000000 750000 0  0 800000 0  50000 800000 0  100000 800000 0  150000 800000 0  200000 800000 0  250000 800000 0  300000 800000 0  350000 800000 0  400000 800000 0  450000 800000 0  500000 800000 0  550000 800000 0  600000 800000 0  650000 800000 0  700000 800000 0  750000 800000 0  800000 800000 0  850000 800000 0  900000 800000 0  950000 800000 0  1000000 800000 0  0 850000 0  50000 850000 0  100000 850000 0  150000 850000 0  200000 850000 0  250000 850000 0  300000 850000 0  350000 850000 0  400000 850000 0  450000 850000 0  500000 850000 0  550000 850000 0  600000 850000 0  650000 850000 0  700000 850000 0  750000 850000 0  800000 850000 0  850000 850000 0  900000 850000 0  950000 850000 0  1000000 850000 0  0 900000 0  50000 900000 0  100000 900000 0  150000 900000 0  200000 900000 0  250000 900000 0  300000 900000 0  350000 900000 0  400000 900000 0  450000 900000 0  500000 900000 0  550000 900000 0  600000 900000 0  650000 900000 0  700000 900000 0  750000 900000 0  800000 900000 0  850000 900000 0  900000 900000 0  950000 900000 0  1000000 900000 0  0 950000 0  50000 950000 0  100000 950000 0  150000 950000 0  200000 950000 0  250000 950000 0  300000 950000 0  350000 950000 0  400000 950000 0  450000 950000 0  500000 950000 0  550000 950000 0  600000 950000 0  650000 950000 0  700000 950000 0  750000 950000 0  800000 950000 0  850000 950000 0  900000 950000 0  950000 950000 0  1000000 950000 0  0 1000000 0  50000 1000000 0  100000 1000000 0  150000 1000000 0  200000 1000000 0  250000 1000000 0  300000 1000000 0  350000 1000000 0  400000 1000000 0  450000 1000000 0  500000 1000000 0  550000 1000000 0  600000 1000000 0  650000 1000000 0  700000 1000000 0  750000 1000000 0  800000 1000000 0  850000 1000000 0  900000 1000000 0  950000 1000000 0  1000000 1000000 0  0 1050000 0  50000 1050000 0  100000 1050000 0  150000 1050000 0  200000 1050000 0  250000 1050000 0  300000 1050000 0  350000 1050000 0  400000 1050000 0  450000 1050000 0  500000 1050000 0  550000 1050000 0  600000 1050000 0  650000 1050000 0  700000 1050000 0  750000 1050000 0  800000 1050000 0  850000 1050000 0  900000 1050000 0  950000 1050000 0  1000000 1050000 0  0 1100000 0  50000 1100000 0  100000 1100000 0  150000 1100000 0  200000 1100000 0  250000 1100000 0  300000 1100000 0  350000 1100000 0  400000 1100000 0  450000 1100000 0  500000 1100000 0  550000 1100000 0  600000 1100000 0  650000 1100000 0  700000 1100000 0  750000 1100000 0  800000 1100000 0  850000 1100000 0  900000 1100000 0  950000 1100000 0  1000000 1100000 0  0 1150000 0  50000 1150000 0  100000 1150000 0  150000 1150000 0  200000 1150000 0  250000 1150000 0  300000 1150000 0  350000 1150000 0  400000 1150000 0  450000 1150000 0  500000 1150000 0  550000 1150000 0  600000 1150000 0  650000 1150000 0  700000 1150000 0  750000 1150000 0  800000 1150000 0  850000 1150000 0  900000 1150000 0  950000 1150000 0  1000000 1150000 0  0 1200000 0  50000 1200000 0  100000 1200000 0  150000 1200000 0  200000 1200000 0  250000 1200000 0  300000 1200000 0  350000 1200000 0  400000 1200000 0  450000 1200000 0  500000 1200000 0  550000 1200000 0  600000 1200000 0  650000 1200000 0  700000 1200000 0  750000 1200000 0  800000 1200000 0  850000 1200000 0  900000 1200000 0  950000 1200000 0  1000000 1200000 0  0 1250000 0  50000 1250000 0  100000 1250000 0  150000 1250000 0  200000 1250000 0  250000 1250000 0  300000 1250000 0  350000 1250000 0  400000 1250000 0  450000 1250000 0  500000 1250000 0  550000 1250000 0  600000 1250000 0  650000 1250000 0  700000 1250000 0  750000 1250000 0  800000 1250000 0  850000 1250000 0  900000 1250000 0  950000 1250000 0  1000000 1250000 0  0 1300000 0  50000 1300000 0  100000 1300000 0  150000 1300000 0  200000 1300000 0  250000 1300000 0  300000 1300000 0  350000 1300000 0  400000 1300000 0  450000 1300000 0  500000 1300000 0  550000 1300000 0  600000 1300000 0  650000 1300000 0  700000 1300000 0  750000 1300000 0  800000 1300000 0  850000 1300000 0  900000 1300000 0  950000 1300000 0  1000000 1300000 0  0 1350000 0  50000 1350000 0  100000 1350000 0  150000 1350000 0  200000 1350000 0  250000 1350000 0  300000 1350000 0  350000 1350000 0  400000 1350000 0  450000 1350000 0  500000 1350000 0  550000 1350000 0  600000 1350000 0  650000 1350000 0  700000 135
[...]
<PointData  Scalars="f_21"> 
<DataArray  type="Float64"  Name="f_21"  format="ascii">-8.2192173514339668e+00  -8.2161603207256970e+00  -8.2010115188535178e+00  -8.1737264810630297e+00  -8.1350164678886276e+00  -8.0859141754794202e+00  -8.0277258959647799e+00  -7.9619944205198445e+00  -7.8904578060413293e+00  -7.8150031933048991e+00  -7.7376168372213678e+00  -7.6603317034016296e+00  -7.5851739934309492e+00  -7.5141099749744145e+00  -7.4489945458366202e+00  -7.3915231622111985e+00  -7.3431895241372329e+00  -7.3052538023377220e+00  -7.2787290858516265e+00  -7.2643321166865942e+00  -7.2612337098965227e+00  -8.2221222064512016e+00  -8.2191345519558681e+00  -8.2037675502697383e+00  -8.1763022432426400e+00  -8.1373924035272864e+00  -8.0880512458438218e+00  -8.0295802305084436e+00  -7.9635244583032874e+00  -7.8916279264588720e+00  -7.8157857430068809e+00  -7.7379933306496094e+00  -7.6602934888935650e+00  -7.5847224877455801e+00  -7.5132564736648328e+00  -7.4477595137656554e+00  -7.3899346172289642e+00  -7.3412788980378609e+00  -7.3030426095258170e+00  -7.2761839297742084e+00  -7.2612754617864734e+00  -7.2581776152928521e+00  -8.2363535075730567e+00  -8.2335792215406816e+00  -8.2178607037322244e+00  -8.1895665923589114e+00  -8.1494807739103603e+00  -8.0986684501637765e+00  -8.0384703881670792e+00  -7.9704732601775508e+00  -7.8964681402624279e+00  -7.8184021967638175e+00  -7.7383263782115606e+00  -7.6583407869105491e+00  -7.5805390924549405e+00  -7.5069532922087019e+00  -7.4395001643688001e+00  -7.3799308505184795e+00  -7.3297851488191030e+00  -7.2903521191406533e+00  -7.2626369988777819e+00  -7.2473194615685710e+00  -7.2445501600790321e+00  -8.2617274962321368e+00  -8.2589875425016785e+00  -8.2426827838283696e+00  -8.2130449330075130e+00  -8.1709378110538147e+00  -8.1175252640211273e+00  -8.0542376324802039e+00  -7.9827508599601478e+00  -7.9049497659388974e+00  -7.8228806331690866e+00  -7.7386977698030570e+00  -7.6546068694644394e+00  -7.5728071012896816e+00  -7.4954335399643233e+00  -7.4245015357699273e+00  -7.3618548464694360e+00  -7.3091197997032227e+00  -7.2676679863019196e+00  -7.2385861287108755e+00  -7.2226194615034593e+00  -7.2198504150356158e+00  -8.2978395631944490e+00  -8.2950233314961199e+00  -8.2777931995547078e+00  -8.2462622194662334e+00  -8.2013273206722133e+00  -8.1442526180961696e+00  -8.0765895201559221e+00  -8.0001444717758616e+00  -7.9169407174481776e+00  -7.8291699446535574e+00  -7.7391369866954118e+00  -7.6492006163745447e+00  -7.5617127169099918e+00  -7.4789577294822598e+00  -7.4030942194348253e+00  -7.3361005850763261e+00  -7.2797271285675667e+00  -7.2354557119058853e+00  -7.2044600015106024e+00  -7.1875157382047119e+00  -7.1845923524656801e+00  -8.3444557206959740e+00  -8.3414805600644630e+00  -8.3229723264463811e+00  -8.2889650505225738e+00  -8.2403889917985698e+00  -8.1786113591284977e+00  -8.1053254640024353e+00  -8.0225017937722125e+00  -7.9323422872369660e+00  -7.8372277139980415e+00  -7.7396587823584051e+00  -7.6421932881222263e+00  -7.5473815039700769e+00  -7.4577017662847851e+00  -7.3754981449970849e+00  -7.3029221243813254e+00  -7.2418799796947049e+00  -7.1939853860865721e+00  -7.1605061528789857e+00  -7.1422468010827034e+00  -7.1390855154018915e+00  -8.4015002532645653e+00  -8.3982960364534964e+00  -8.3781603160048679e+00  -8.3410783624922047e+00  -8.2880323038705512e+00  -8.2205071322695087e+00  -8.1403596214264411e+00  -8.0497547748410518e+00  -7.9511103107809706e+00  -7.8470372112399174e+00  -7.7402753568619342e+00  -7.6336257151303339e+00  -7.5298809028456191e+00  -7.4317558862137396e+00  -7.3418205338837108e+00  -7.2624356785721078e+00  -7.1956938191367872e+00  -7.1433628953010464e+00  -7.1068200273725264e+00  -7.0869129529578130e+00  -7.0834511970129270e+00  -8.4690231738235120e+00  -8.4655250789836227e+00  -8.4434157692412057e+00  -8.4026514669350512e+00  -8.3442901626185950e+00  -8.2699574963954667e+00  -8.1816995351731698e+00  -8.0819069195819910e+00  -7.9732491849272851e+00  -7.8586070531381083e+00  -7.7410011554567966e+00  -7.6235180863834699e+00  -7.5092351597935760e+00  -7.4011452671180820e+00  -7.3020832270453591e+00  -7.2146549540757059e+00  -7.1411702062297646e+00  -7.0835768650245123e+00  -7.0433827091749768e+00  -7.0214984638016009e+00  -7.0176798919173811e+00  -8.5471641344213225e+00  -8.5433090971801295e+00  -8.5188792927850052e+00  -8.4738149081339049e+00  -8.4092749904085711e+00  -8.3270534605432136e+00  -8.2294157300929704e+00  -8.1190113760644813e+00  -7.9987982025590041e+00  -7.8719654948215609e+00  -7.7418549087131527e+00  -7.6118795914805260e+00  -7.4854424569961093e+00  -7.3658545318092514e+00  -7.2562543126550603e+00  -7.1595291086845343e+00  -7.0782389178488048e+00  -7.0145406779649502e+00  -6.9700981919084413e+00  -6.9459063899529561e+00  -6.9416764274824843e+00  -8.6361138270244417e+00  -8.6318385651104990e+00  -8.6047363984748930e+00  -8.5547411618253797e+00  -8.4831387192430672e+00  -8.3919221790639789e+00  -8.2836099968337038e+00  -8.1611465428268630e+00  -8.0278153843740263e+00  -7.8871529089408954e+00  -7.7428608786673268e+00  -7.5987183042688580e+00  -7.4584930564519141e+00  -7.3258534932317314e+00  -7.2042804354906806e+00  -7.0969800317487266e+00  -7.0067979069957484e+00  -6.9361324712687029e+00  -6.8868319660975272e+00  -6.8599975358390353e+00  -6.8553017184814653e+00  -8.7360714371094037e+00  -8.7313111909678849e+00  -8.7011765395561476e+00  -8.6456036628969191e+00  -8.5660323695863134e+00  -8.4646890189903932e+00  -8.3443823121488538e+00  -8.2083898847477546e+00  -8.0603596729589952e+00  -7.9042132771051152e+00  -7.7440500403205181e+00  -7.5840519457231927e+00  -7.4283890526867751e+00  -7.2811248430035755e+00  -7.1461209319893273e+00  -7.0269410636845029e+00  -6.9267545681289402e+00  -6.8482372232885940e+00  -6.7934532809282668e+00  -6.7636335492958795e+00  -6.7584167515649618e+00  -8.8471962193276337e+00  -8.8418838608084585e+00  -8.8083459545086917e+00  -8.7465305224368652e+00  -8.6580612434853688e+00  -8.5454357815385382e+00  -8.4117942193314672e+00  -8.2607886531099801e+00  -8.0964708320382659e+00  -7.9231845460497574e+00  -7.7454615019467914e+00  -7.5679202682433937e+00  -7.3951669359491365e+00  -7.2316955049919196e+00  -7.0817861282026220e+00  -6.9494001599188131e+00  -6.8380717827712614e+00  -6.7507942038964304e+00  -6.6898833571601513e+00  -6.6567258984299551e+00  -6.6509319368137794e+00  -8.9695510014657192e+00  -8.9636163402547453e+00  -8.9262920412608526e+00  -8.8575499571983283e+00  -8.7592323199841182e+00  -8.6341517759534128e+00  -8.4858258988305000e+00  -8.3183254506131785e+00  -8.1361457415208616e+00  -7.9440872831466578e+00  -7.7471443288746524e+00  -7.5503999381206954e+00  -7.3589245277976056e+00  -7.1776738566040814e+00  -7.0113825608290714e+00  -6.8644506481192069e+00  -6.7408219748617695e+00  -6.6438526919124108e+00  -6.5761519134579842e+00  -6.5392929165588303e+00  -6.5328643281266832e+00  -9.1030351548476620e+00  -9.0964043243684607e+00  -9.0548966968767193e+00  -8.9785244382741300e+00  -8.8693904890604855e+00  -8.7306743293567752e+00  -8.5663238347856119e+00  -8.3808761609299705e+00  -8.1793094024290180e+00  -7.9669108333640404e+00  -7.7491598934802948e+00  -7.5316229438136846e+00  -7.3198541573375193e+00  -7.1192954049072092e+00  -6.9351682355015978e+00  -6.7723529527258330e+00  -6.6352524937973554e+00  -6.5276389533558712e+00  -6.4524646194485511e+00  -6.4115273786811082e+00  -6.4044052381538155e+00  -9.2473042648856971e+00  -9.2398990619653105e+00  -9.1937956356281614e+00  -9.1090701793729725e+00  -8.9881398989767085e+00  -8.8346149340062397e+00  -8.6529355728612778e+00  -8.4481573707928330e+00  -8.2257786580460817e+00  -7.9915960073599983e+00  -7.7515848649273114e+00  -7.5117997173763973e+00  -7.2782842585428300e+00  -7.0569799280977517e+00  -6.8536215087897432e+00  -6.6736111195447130e+00  -6.5218660601982670e+00  -6.4026378684588749e+00  -6.3192844737532781e+00  -6.2738773904457332e+00  -6.2660010143533889e+00  -9.4016733722937893e+00  -9.3934103725852758e+00  -9.3422801567921603e+00  -9.2484579412252153e+00  -9.1147460142505530e+00  -8.9452665888155156e+00  -8.7450275092911003e+00  -8.5196599832567248e+00  -8.2752163498910321e+00  -8.0180131849408731e+00  -7.7545149487279694e+00  -7.4912483035020072e+00  -7.2347318808848273e+00  -6.9914035727904302e+00  -6.7675278033354997e+00  -6.5690686800421094e+00  -6.4015207217469055e+00  -6.2696932401473919e+00  -6.1774306332544384e+00  -6.1271437746407731e+00  -6.1184501028941387e+00  -9.5650001930182444e+00  -9.5557893582495357e+00  -9.4991771099199287e+00  -9.3954902094318093e+00  -9.2480130063710266e+00  -9.0614870281940068e+00  -8.8415810090850098e+00  -8.5945653207632002e+00  -8.3270734176705421e+00  -8.0459346261077158e+00  -7.7580694682157176e+00  -7.4704309815985646e+00  -7.1899688319152641e+00  -6.9235898578517592e+00  -6.6780890943508728e+00  -6.4600293410922776e+00  -6.2755547925963029e+00  -6.1301317535249122e+00  -6.0281989535850169e+00  -5.9725976850174023e+00  -5.9630200265536608e+00  -9.7355440794828656e+00  -9.7252863843677719e+00  -9.6627017625601486e+00  -9.5483484903454396e+00  -9.3861297890231263e+00  -9.1815515210478758e+00  -8.9410615907365827e+00  -8.6716398550566272e+00  -8.3805165023562687e+00  -8.0749998365956230e+00  -7.7623968213267114e+00  -7.4499996023994912e+00  -7.1451041045127477e+00  -6.8550237691867153e+00  -6.5870618023068657e+00  -6.3484091431479701e+00  -6.1459436670655130e+00  -5.9859169225201896e+00  -5.8735095815068661e+00  -5.8121229733961162e+00  -5.8015886371189076e+00  -9.9107954858776335e+00  -9.8993787621548268e+00  -9.8302766434567186e+00  -9.7044025207053082e+00  -9.5264762888421952e+00  -9.3029679290596317e+00  -9.0412557951253749e+00  -8.7491052126689741e+00  -8.4343392897436900e+00  -8.1046732273226620e+00  -7.7676807049536505e+00  -7.4308502777755914e+00  -7.1016844719540320e+00  -6.7877927043029906e+00  -6.4969290785758549e+00  -6.2369280080550151e+00  -6.0154973474916540e+00  -5.8398414333161863e+00  -5.7160886488418035e+00  -5.6483891057466620e+00  -5.6368151774410444e+00  -1.0087269003175980e+01  -1.0074560601719391e+01  -9.9983066802229441e+00  -9.8599701565302365e+00  -9.6653793321496213e+00  -9.4222461241969153e+00  -9.1390714084582818e+00  -8.8244821139435530e+00  -8.4868578079277111e+00  -8.1341943785062281e+00  -7.7741467077931086e+00  -7.4141864972182310e+00  -7.0618129102570055e+00  -6.7247561053225597e+00  -6.4111128186682684e+00  -6.1293497394257468e+00  -5.8881102165081751e+00  -5.6957695917575810e+00  -5.5596940063989573e+00  -5.4850626055801071e+00  -5.4723487121128560e+00  -1.0260249960410672e+01  -1.0246083695246163e+01  -1.0161896012466322e+01  -1.0010011809777136e+01  -9.7978048497113370e+00  -9.5346145847353281e+00  -9.2303003666630179e+00  -8.8944118849889513e+00  -8.5357942913911735e+00  -8.1625235239388818e+00  -7.7820683278618770e+00  -7.4015864849169128e+00  -7.0282795474232636e+00  -6.6697406710797882e+00  -6.3342277404139073e+00  -6.0307798735935556e+00  -5.7690782632639648e+00  -5.5589470517485351e+00  -5.4094000942582721e+00  -5.3270689680635384e+00  -5.3130851652178830e+00  -1.0423478822000568e+01  -1.0407631321000425e+01  -1.0314482595863502e+01  -1.0147735228876931e+01  -9.9169704275902184e+00  -9.6336810705556726e+00  -9.3093526475225072e+00  -8.9544696125402314e+00  -8.5781627722120763e+00  -8.1882892162876075e+00  -7.7917705370282135e+00  -7.3950645611319441e+00  -7.0046901181565362e+00  -6.6277473810142444e+00  -6.2723718633422187e+00  -5.9480286513217475e+00  -5.6655037420346117e+00  -5.4364043513767539e+00  -5.2719666646223047e+00  -5.1809244867677950e+00  -5.1654911500692986e+00  -1.0568746520436791e+01  -1.0550892814777923e+01  -1.0447348735649522e+01  -1.0264073272724307e+01  -1.0013861552896779e+01  -9.7110462904195760e+00  -9.3689886881486633e+00  -8.9990027002477060e+00  -8.6101845417131102e+00  -8.2097524933293009e+00  -7.8036275691926793e+00  -7.3971061140387997e+00  -6.9955595856736519e+00  -6.6051357806428657e+00  -6.2334295614940087e+00  -5.8900377935258206e+00  -5.5868123435011690e+00  -5.3374969748162773e+00  -5.1563346989231853e+00  -5.0551721204423528e+00  -5.0380263140384312e+00  -1.0685352154754669e+01  -1.0664976991866281e+01  -1.0548929993983155e+01  -1.0346977456121342e+01  -1.0076642782403582e+01  -9.7559093032173365e+00  -9.4001157348172182e+00  -9.0210625392485539e+00  -8.6272852278832914e+00  -8.2248129336479572e+00  -7.8180496862112987e+00  -7.4106406337418056e+00  -7.0063106125942136e+00  -6.6097135014918038e+00  -6.2273252777688928e+00  -5.8683451601980421e+00  -5.5454094122143660e+00  -5.2746523593385852e+00  -5.0743302688399217e+00  -4.9609854743214079e+00  -4.9417232878356980e+00  -1.0759331227452600e+01  -1.0735535091880253e+01  -1.0603773562847467e+01  -1.0380446911293676e+01  -1.0089990812074506e+01  -9.7547714042773137e+00  -9.3917826262401878e+00  -9.0125496054225547e+00  -8.6242573343006015e+00  -8.2310959583144339e+00  -7.8354517623969109e+00  -7.4388984255724413e+00  -7.0430770560016844e+00  -6.6505971211532344e+00  -6.2660905288761555e+00  -5.8974979454859247e+00  -5.5574846394409407e+00  -5.2644388520398291e+00  -5.0417351848212286e+00  -4.9130695981326449e+00  -4.8910425382729326e+00  -1.0772274098142612e+01  -1.0743298249010254e+01  -1.0590859225853956e+01  -1.0343214523510708e+01  -1.0034492004969470e+01  -9.6914893677656178e+00  -9.3316215441072004e+00  -8.9647609431199538e+00  -8.5957050385553266e+00  -8.2261726719074524e+00  -7.8561958480553962e+00  -7.4850811004363234e+00  -7.1121694398896462e+00  -6.7376218922931566e+00  -6.3634676466342324e+00  -5.9951698640770319e+00  -5.6438874963722814e+00  -5.3291286539552658e+00  -5.0800527405728664e+00  -4.9311389334529743e+00  -4.9052529054120368e+00  -1.0699356872294134e+01  -1.0661293453859049e+01  -1.0480767860659189e+01  -1.0207162472573771e+01  -9.8865672623650678e+00  -9.5482048740679240e+00  -9.2071421680169969e+00  -8.8695881116112645e+00  -8.5368969889272552e+00  -8.2079599600871589e+00  -7.8805017225941842e+00  -7.5517804238197996e+00  -7.2190408785595999e+00  -6.8799865307596102e+00  -6.5335515565426379e+00  -6.1813839706660474e+00  -5.8306701340373968e+00  -5.4989127378189337e+00  -5.2196739264220895e+00  -5.0426521677217657e+00  -5.0109311795642446e+00  -1.0505596395891958e+01  -1.0448789741377105e+01  -1.0231034452549316e+01  -9.9362610958164357e+00  -9.6201561424781108e+00  -9.3081116073297689e+00  -9.0084116038625979e+00  -8.7215829592472307e+00  -8.4450821039521369e+00  -8.1753013207887690e+00  -7.9083202252069187e+00  -7.6401280266153728e+00  -7.3666568837777788e+00  -7.0838165791712928e+00  -6.7877309955404854e+00  -6.4755665958705730e+00  -6.1478586289443360e+00  -5.8143239708618033e+00  -5.5058887412243989e+00  -5.2887118360611503e+00  -5.2471985861470527e+00  -1.0136496035331506e+01  -1.0037064266266027e+01  -9.7802741099915558e+00  -9.4892701018457419e+00  -9.2128569921172403e+00  -8.9613969283586581e+00  -8.7324821308325475e+00  -8.5208043773032198e+00  -8.3210712532009428e+00  -8.1285831767340166e+00  -7.9391342786249721e+00  -7.7487477124764537e+00  -7.5533760484773156e+00  -7.3485874940175027e+00  -7.1292539257896177e+00  -6.8893625391795945e+00  -6.6224989982623885e+00  -6.3250547126369767e+00  -6.0091217910921344e+00  -5.7395937943050184e+00  -5.6788377695249146e+00  -9.4822286023470621e+00  -9.2975357373770162e+00  -9.0502037767911290e+00  -8.8355381502963937e+00  -8.6606197341784288e+00  -8.5148996180391787e+00  -8.3887430567061347e+00  -8.2754104357615947e+00  -8.1702463386271909e+00  -8.0698354232767713e+00  -7.9714274757742301e+00  -7.8725448770986599e+00  -7.7706678015508501e+00  -7.6629081906125549e+00  -7.5455745958184499e+00  -7.4134828141548832e+00  -7.2587962691241881e+00  -7.0693617812296434e+00  -6.8289901135856041e+00  -6.5416635069425517e+00  -6.4396746524703126e+00  -8.0000000000000000e+00  -8.0000000000000000e+00  -8.0000000000000000e+00  -8.0000000000000000e+00  -8.0000000000000000e+00  -8.0000000000000000e+00  -8.0000000000000000e+00  -8.0000000000000000e+00  -8.0000000000000000e+00  -8.0000000000000000e+00  -8.0000000000000000e+00  -8.0000000000000000e+00  -8.0000000000000000e+00  -8.0000000000000000e+00  -8.0000000000000000e+00  -8.0000000000000000e+00  -8.0000000000000000e+00  -8.0000000000000000e+00  -8.0000000000000000e+00  -8.0000000000000000e+00  -8.0000000000000000e+00  </DataArray> 
</PointData> 
</Piece>
</UnstructuredGrid>
</VTKFile>