<?xml version="1.0"?>
<VTKFile type="UnstructuredGrid"  version="0.1"  >
<UnstructuredGrid>
<Piece  NumberOfPoints="651" NumberOfCells="1200">
<Points>
<DataArray  type="Float64"  NumberOfComponents="3"  format="ascii">0 0 0  50000 0 0  100000 0 0  150000 0 0  200000 0 0  250000 0 0  300000 0 0  350000 0 0  400000 0 0  450000 0 0  500000 0 0  550000 0 0  600000 0 0  650000 0 0  700000 0 0  750000 0 0  800000 0 0  850000 0 0  900000 0 0  950000 0 0  1000000 0 0  0 50000 0  50000 50000 0  100000 50000 0  150000 50000 0  200000 50000 0  250000 50000 0  300000 50000 0  350000 50000 0  400000 50000 0  450000 50000 0  500000 50000 0  550000 50000 0  600000 50000 0  650000 50000 0  700000 50000 0  750000 50000 0  800000 50000 0  850000 50000 0  900000 50000 0  950000 50000 0  1000000 50000 0  0 100000 0  50000 100000 0  100000 100000 0  150000 100000 0  200000 100000 0  250000 100000 0  300000 100000 0  350000 100000 0  400000 100000 0  450000 100000 0  500000 100000 0  550000 100000 0  600000 100000 0  650000 100000 0  700000 100000 0  750000 100000 0  800000 100000 0  850000 100000 0  900000 100000 0  950000 100000 0  1000000 100000 0  0 150000 0  50000 150000 0  100000 150000 0  150000 150000 0  200000 150000 0  250000 150000 0  300000 150000 0  350000 150000 0  400000 150000 0  450000 150000 0  500000 150000 0  550000 150000 0  600000 150000 0  650000 150000 0  700000 150000 0  750000 150000 0  800000 150000 0  850000 150000 0  900000 150000 0  950000 150000 0  1000000 150000 0  0 200000 0  50000 200000 0  100000 200000 0  150000 200000 0  200000 200000 0  250000 200000 0  300000 200000 0  350000 200000 0  400000 200000 0  450000 200000 0  500000 200000 0  550000 200000 0  600000 200000 0  650000 200000 0  700000 200000 0  750000 200000 0  800000 200000 0  850000 200000 0  900000 200000 0  950000 200000 0  1000000 200000 0  0 250000 0  50000 250000 0  100000 250000 0  150000 250000 0  200000 250000 0  250000 250000 0  300000 250000 0  350000 250000 0  400000 250000 0  450000 250000 0  500000 250000 0  550000 250000 0  600000 250000 0  650000 250000 0  700000 250000 0  750000 250000 0  800000 250000 0  850000 250000 0  900000 250000 0  950000 250000 0  1000000 250000 0  0 300000 0  50000 300000 0  100000 300000 0  150000 300000 0  200000 300000 0  250000 300000 0  300000 300000 0  350000 300000 0  400000 300000 0  450000 300000 0  500000 300000 0  550000 300000 0  600000 300000 0  650000 300000 0  700000 300000 0  750000 300000 0  800000 300000 0  850000 300000 0  900000 300000 0  950000 300000 0  1000000 300000 0  0 350000 0  50000 350000 0  100000 350000 0  150000 350000 0  200000 350000 0  250000 350000 0  300000 350000 0  350000 350000 0  400000 350000 0  450000 350000 0  500000 350000 0  550000 350000 0  600000 350000 0  650000 350000 0  700000 350000 0  750000 350000 0  800000 350000 0  850000 350000 0  900000 350000 0  950000 350000 0  1000000 350000 0  0 400000 0  50000 400000 0  100000 400000 0  150000 400000 0  200000 400000 0  250000 400000 0  300000 400000 0  350000 400000 0  400000 400000 0  450000 400000 0  500000 400000 0  550000 400000 0  600000 400000 0  650000 400000 0  700000 400000 0  750000 400000 0  800000 400000 0  850000 400000 0  900000 400000 0  950000 400000 0  1000000 400000 0  0 450000 0  50000 450000 0  100000 450000 0  150000 450000 0  200000 450000 0  250000 450000 0  300000 450000 0  350000 450000 0  400000 450000 0  450000 450000 0  500000 450000 0  550000 450000 0  600000 450000 0  650000 450000 0  700000 450000 0  750000 450000 0  800000 450000 0  850000 450000 0  900000 450000 0  950000 450000 0  1000000 450000 0  0 500000 0  50000 500000 0  100000 500000 0  150000 500000 0  200000 500000 0  250000 500000 0  300000 500000 0  350000 500000 0  400000 500000 0  450000 500000 0  500000 500000 0  550000 500000 0  600000 500000 0  650000 500000 0  700000 500000 0  750000 500000 0  800000 500000 0  850000 500000 0  900000 500000 0  950000 500000 0  1000000 500000 0  0 550000 0  50000 550000 0  100000 550000 0  150000 550000 0  200000 550000 0  250000 550000 0  300000 550000 0  350000 550000 0  400000 550000 0  450000 550000 0  500000 550000 0  550000 550000 0  600000 550000 0  650000 550000 0  700000 550000 0  750000 550000 0  800000 550000 0  850000 550000 0  900000 550000 0  950000 550000 0  1000000 550000 0  0 600000 0  50000 600000 0  100000 600000 0  150000 600000 0  200000 600000 0  250000 600000 0  300000 600000 0  350000 600000 0  400000 600000 0  450000 600000 0  500000 600000 0  550000 600000 0  600000 600000 0  650000 600000 0  700000 600000 0  750000 600000 0  800000 600000 0  850000 600000 0  900000 600000 0  950000 600000 0  1000000 600000 0  0 650000 0  50000 650000 0  100000 650000 0  150000 650000 0  200000 650000 0  250000 650000 0  300000 650000 0  350000 650000 0  400000 650000 0  450000 650000 0  500000 650000 0  550000 650000 0  600000 650000 0  650000 650000 0  700000 650000 0  750000 650000 0  800000 650000 0  850000 650000 0  900000 650000 0  950000 650000 0  1000000 650000 0  0 700000 0  50000 700000 0  100000 700000 0  150000 700000 0  200000 700000 0  250000 700000 0  300000 700000 0  350000 700000 0  400000 700000 0  450000 700000 0  500000 700000 0  550000 700000 0  600000 700000 0  650000 700000 0  700000 700000 0  750000 700000 0  800000 700000 0  850000 700000 0  900000 700000 0  950000 700000 0  1000000 700000 0  0 750000 0  50000 750000 0  100000 750000 0  150000 750000 0  200000 750000 0  250000 750000 0  300000 750000 0  350000 750000 0  400000 750000 0  450000 750000 0  500000 750000 0  550000 750000 0  600000 750000 0  650000 750000 0  700000 750000 0  750000 750000 0  800000 750000 0  850000 750000 0  900000 750000 0  950000 750000 0  1000000 750000 0  0 800000 0  50000 800000 0  100000 800000 0  150000 800000 0  200000 800000 0  250000 800000 0  300000 800000 0  350000 800000 0  400000 800000 0  450000 800000 0  500000 800000 0  550000 800000 0  600000 800000 0  650000 800000 0  700000 800000 0  750000 800000 0  800000 800000 0  850000 800000 0  900000 800000 0  950000 800000 0  1000000 800000 0  0 850000 0  50000 850000 0  100000 850000 0  150000 850000 0  200000 850000 0  250000 850000 0  300000 850000 0  350000 850000 0  400000 850000 0  450000 850000 0  500000 850000 0  550000 850000 0  600000 850000 0  650000 850000 0  700000 850000 0  750000 850000 0  800000 850000 0  850000 850000 0  900000 850000 0  950000 850000 0  1000000 850000 0  0 900000 0  50000 900000 0  100000 900000 0  150000 900000 0  200000 900000 0  250000 900000 0  300000 900000 0  350000 900000 0  400000 900000 0  450000 900000 0  500000 900000 0  550000 900000 0  600000 900000 0  650000 900000 0  700000 900000 0  750000 900000 0  800000 900000 0  850000 900000 0  900000 900000 0  950000 900000 0  1000000 900000 0  0 950000 0  50000 950000 0  100000 950000 0  150000 950000 0  200000 950000 0  250000 950000 0  300000 950000 0  350000 950000 0  400000 950000 0  450000 950000 0  500000 950000 0  550000 950000 0  600000 950000 0  650000 950000 0  700000 950000 0  750000 950000 0  800000 950000 0  850000 950000 0  900000 950000 0  950000 950000 0  1000000 950000 0  0 1000000 0  50000 1000000 0  100000 1000000 0  150000 1000000 0  200000 1000000 0  250000 1000000 0  300000 1000000 0  350000 1000000 0  400000 1000000 0  450000 1000000 0  500000 1000000 0  550000 1000000 0  600000 1000000 0  650000 1000000 0  700000 1000000 0  750000 1000000 0  800000 1000000 0  850000 1000000 0  900000 1000000 0  950000 1000000 0  1000000 1000000 0  0 1050000 0  50000 1050000 0  100000 1050000 0  150000 1050000 0  200000 1050000 0  250000 1050000 0  300000 1050000 0  350000 1050000 0  400000 1050000 0  450000 1050000 0  500000 1050000 0  550000 1050000 0  600000 1050000 0  650000 1050000 0  700000 1050000 0  750000 1050000 0  800000 1050000 0  850000 1050000 0  900000 1050000 0  950000 1050000 0  1000000 1050000 0  0 1100000 0  50000 1100000 0  100000 1100000 0  150000 1100000 0  200000 1100000 0  250000 1100000 0  300000 1100000 0  350000 1100000 0  400000 1100000 0  450000 1100000 0  500000 1100000 0  550000 1100000 0  600000 1100000 0  650000 1100000 0  700000 1100000 0  750000 1100000 0  800000 1100000 0  850000 1100000 0  900000 1100000 0  950000 1100000 0  1000000 1100000 0  0 1150000 0  50000 1150000 0  100000 1150000 0  150000 1150000 0  200000 1150000 0  250000 1150000 0  300000 1150000 0  350000 1150000 0  400000 1150000 0  450000 1150000 0  500000 1150000 0  550000 1150000 0  600000 1150000 0  650000 1150000 0  700000 1150000 0  750000 1150000 0  800000 1150000 0  850000 1150000 0  900000 1150000 0  950000 1150000 0  1000000 1150000 0  0 1200000 0  50000 1200000 0  100000 1200000 0  150000 1200000 0  200000 1200000 0  250000 1200000 0  300000 1200000 0  350000 1200000 0  400000 1200000 0  450000 1200000 0  500000 1200000 0  550000 1200000 0  600000 1200000 0  650000 1200000 0  700000 1200000 0  750000 1200000 0  800000 1200000 0  850000 1200000 0  900000 1200000 0  950000 1200000 0  1000000 1200000 0  0 1250000 0  50000 1250000 0  100000 1250000 0  150000 1250000 0  200000 1250000 0  250000 1250000 0  300000 1250000 0  350000 1250000 0  400000 1250000 0  450000 1250000 0  500000 1250000 0  550000 1250000 0  600000 1250000 0  650000 1250000 0  700000 1250000 0  750000 1250000 0  800000 1250000 0  850000 1250000 0  900000 1250000 0  950000 1250000 0  1000000 1250000 0  0 1300000 0  50000 1300000 0  100000 1300000 0  150000 1300000 0  200000 1300000 0  250000 1300000 0  300000 1300000 0  350000 1300000 0  400000 1300000 0  450000 1300000 0  500000 1300000 0  550000 1300000 0  600000 1300000 0  650000 1300000 0  700000 1300000 0  750000 1300000 0  800000 1300000 0  850000 1300000 0  900000 1300000 0  950000 1300000 0  1000000 1300000 0  0 1350000 0  50000 1350000 0  100000 1350000 0  150000 1350000 0  200000 1350000 0  250000 1350000 0  300000 1350000 0  350000 1350000 0  400000 1350000 0  450000 1350000 0  500000 1350000 0  550000 1350000 0  600000 1350000 0  650000 1350000 0  700000 135
[...]
<PointData  Scalars="f_21"> 
<DataArray  type="Float64"  Name="f_21"  format="ascii">-8.0888358290304030e+00  -8.0875910660709760e+00  -8.0814806100557668e+00  -8.0704849112345958e+00  -8.0548868968983331e+00  -8.0351000680053488e+00  -8.0116492267716310e+00  -7.9851554075752924e+00  -7.9563191136827998e+00  -7.9259015388341858e+00  -7.8947042412066910e+00  -7.8635478197112070e+00  -7.8332501489821986e+00  -7.8046047362671560e+00  -7.7783597844462840e+00  -7.7551986235689334e+00  -7.7357224704244842e+00  -7.7204374055844287e+00  -7.7097485534313108e+00  -7.7039400383450394e+00  -7.7026831245742153e+00  -8.0900306261434469e+00  -8.0888131649789958e+00  -8.0826154503794907e+00  -8.0715464041898688e+00  -8.0558663762297691e+00  -8.0359812632682068e+00  -8.0124140638583476e+00  -7.9857868406165977e+00  -7.9568025717474722e+00  -7.9262257387649342e+00  -7.8948616716093341e+00  -7.8635350102627850e+00  -7.8330677651062679e+00  -7.8042575017233853e+00  -7.7778561934411581e+00  -7.7545502882260902e+00  -7.7349424641148046e+00  -7.7195349773121045e+00  -7.7087114008668500e+00  -7.7026993715939902e+00  -7.7014419275115600e+00  -8.0957814078903887e+00  -8.0946465527784035e+00  -8.0883053010317667e+00  -8.0769018646534860e+00  -8.0607478273128095e+00  -8.0402697184600296e+00  -8.0160062925903652e+00  -7.9885963553269104e+00  -7.9587618674852258e+00  -7.9272883085290529e+00  -7.8950034069392663e+00  -7.8627549197543081e+00  -7.8313880136112308e+00  -7.8017227834144780e+00  -7.7745324597273022e+00  -7.7505228902614984e+00  -7.7303139348766017e+00  -7.7144234192074927e+00  -7.7032536660981403e+00  -7.6970747900794221e+00  -7.6959448500736087e+00  -8.1060180343543973e+00  -8.1048941426506040e+00  -8.0983131858940602e+00  -8.0863665364455866e+00  -8.0693976120800457e+00  -8.0478720751813348e+00  -8.0223644087028916e+00  -7.9935491881446836e+00  -7.9621860359928585e+00  -7.9291003044413086e+00  -7.8951613307584028e+00  -7.8612593920109610e+00  -7.8282821393073654e+00  -7.7970911669109562e+00  -7.7684993678629759e+00  -7.7432498142931259e+00  -7.7219970761192140e+00  -7.7052919881585202e+00  -7.6935693868864297e+00  -7.6871257314801884e+00  -7.6859932097265604e+00  -8.1205840951687698e+00  -8.1194266106508497e+00  -8.1124690481391699e+00  -8.0997569074493878e+00  -8.0816472959955199e+00  -8.0586459306094405e+00  -8.0313756746703469e+00  -8.0005633919448886e+00  -7.9670242869981802e+00  -7.9316421774223924e+00  -7.8953469733346706e+00  -7.8590905764915133e+00  -7.8238221198469793e+00  -7.7904633174553064e+00  -7.7598846726774973e+00  -7.7328833648204114e+00  -7.7101637140671926e+00  -7.6923207446148592e+00  -7.6798241744232287e+00  -7.6729831349869304e+00  -7.6717861759625103e+00  -8.1393914394969791e+00  -8.1381668269047989e+00  -8.1306904281164218e+00  -8.1169772492402341e+00  -8.0973982686958603e+00  -8.0725006338504794e+00  -8.0429640952272852e+00  -8.0095813416335417e+00  -7.9732393798808721e+00  -7.9348980866280190e+00  -7.8955662201003030e+00  -7.8562758280194158e+00  -7.8180559411673114e+00  -7.7819063465855240e+00  -7.7487722071096687e+00  -7.7195203124461562e+00  -7.6949176567657949e+00  -7.6756122090447683e+00  -7.6621116027304232e+00  -7.6547370218011732e+00  -7.6534417283768130e+00  -8.1624151919111583e+00  -8.1610948065468225e+00  -8.1529585219384426e+00  -8.1380025908817686e+00  -8.1166191980445692e+00  -8.0894029157457101e+00  -8.0570991778639200e+00  -8.0205788568433700e+00  -7.9808157612030683e+00  -7.9388624483729817e+00  -7.8958240202372654e+00  -7.8528305117928747e+00  -7.8110086165627628e+00  -7.7714534682690619e+00  -7.7352011800205140e+00  -7.7032028215635400e+00  -7.6763003162914858e+00  -7.6552036965328805e+00  -7.6404646649784036e+00  -7.6324221732079209e+00  -7.6310029107534394e+00  -8.1896807881244840e+00  -8.1882380199085585e+00  -8.1793018768353871e+00  -8.1628575072465761e+00  -8.1393277862158939e+00  -8.1093639054274256e+00  -8.0737874569608632e+00  -8.0335601267760257e+00  -7.9897571374623677e+00  -7.9435397448498399e+00  -7.8961262391308562e+00  -7.8487618419616183e+00  -7.8026880682574431e+00  -7.7591121300660237e+00  -7.7191769562225314e+00  -7.6839323806234834e+00  -7.6543078375860718e+00  -7.6310858191269197e+00  -7.6148706822622607e+00  -7.6060269676446453e+00  -7.6044605334262974e+00  -8.2212495682026141e+00  -8.2196584377286221e+00  -8.2097818910821641e+00  -8.1915990337248044e+00  -8.1655734139134886e+00  -8.1324239235030724e+00  -8.0930604580796164e+00  -8.0485490203926116e+00  -8.0000810433427887e+00  -7.9489422433381627e+00  -7.8964804506739394e+00  -7.8440726902653140e+00  -7.7930919054760199e+00  -7.7448737112396993e+00  -7.7006835725459579e+00  -7.6616848217547906e+00  -7.6289077720247542e+00  -7.6032191417143862e+00  -7.5852861252434858e+00  -7.5755072686369296e+00  -7.5737711240483669e+00  -8.2572033112457639e+00  -8.2554376867125576e+00  -8.2444779578147820e+00  -8.2243009763699373e+00  -8.1954212073050385e+00  -8.1586376404409577e+00  -8.1149620796476594e+00  -8.0655793763253811e+00  -8.0118124003083047e+00  -7.9550869955174894e+00  -7.8968964279893887e+00  -7.8387655177567090e+00  -7.7822146462700612e+00  -7.7287237708189096e+00  -7.6796965989738153e+00  -7.6364251642524739e+00  -7.6000550001686600e+00  -7.5715501462042099e+00  -7.5516520483542244e+00  -7.5408020216312517e+00  -7.5388736291924392e+00  -8.2976271278171208e+00  -8.2956602253821945e+00  -8.2834709902439876e+00  -8.2610374548046632e+00  -8.2289358281193188e+00  -8.1880588818672262e+00  -8.1395353488222444e+00  -8.0846845197888815e+00  -8.0249763858535452e+00  -7.9619924276902463e+00  -7.8973866132241639e+00  -7.8328466815319837e+00  -7.7700556245486974e+00  -7.7106531331971508e+00  -7.6561968081871559e+00  -7.6081231268598097e+00  -7.5677082772608681e+00  -7.5360281251914936e+00  -7.5139110697490699e+00  -7.5018505701540361e+00  -7.4997070836157640e+00  -8.3425899295096517e+00  -8.3403939601846826e+00  -8.3268243968755140e+00  -8.3018642360069226e+00  -8.2661634157034367e+00  -8.2207238028244980e+00  -8.1668076799784668e+00  -8.1058854774263622e+00  -8.0395903417663099e+00  -7.9696744556130739e+00  -7.8979666835206723e+00  -7.8263314122027063e+00  -7.7566280639794662e+00  -7.6906705010475154e+00  -7.6301855869698869e+00  -7.5767705047087581e+00  -7.5318487805429557e+00  -7.4966243058087461e+00  -7.4720268081657508e+00  -7.4586123979032664e+00  -7.4562305015530903e+00  -8.3921215872407622e+00  -8.3896674830050131e+00  -8.3745615863817342e+00  -8.3467966656891175e+00  -8.3071103181375729e+00  -8.2566311119349702e+00  -8.1967735264586938e+00  -8.1291770623045565e+00  -8.0556541927525274e+00  -7.9781418939418236e+00  -7.8986562773679054e+00  -7.8192498135245394e+00  -7.7419699459873037e+00  -7.6688174796262967e+00  -7.6017031957759551e+00  -7.5424016713670694e+00  -7.4925019508944848e+00  -7.4533543685377079e+00  -7.4260067296083454e+00  -7.4110901814712573e+00  -7.4084459993252718e+00  -8.4461857796560835e+00  -8.4434429513048403e+00  -8.4266389613600285e+00  -8.3957829877377517e+00  -8.3517172574118899e+00  -8.2957179709205562e+00  -8.2293731802326793e+00  -8.1545108296010600e+00  -8.0731386949995176e+00  -7.9873908373981806e+00  -7.8994799297563336e+00  -7.8116542977900716e+00  -7.7261574245026043e+00  -7.6451870546346195e+00  -7.5708511305740647e+00  -7.5051185647404672e+00  -7.4497639661452180e+00  -7.4063055704271532e+00  -7.3759294629293217e+00  -7.3593571530322217e+00  -7.3564261728710933e+00  -8.5046474080621355e+00  -8.5015834833234010e+00  -8.4829131868891334e+00  -8.4486716806547832e+00  -8.3998274204279930e+00  -8.3378300333118105e+00  -8.2644663027240401e+00  -8.1817737417471896e+00  -8.0919707081016572e+00  -7.9973976205627819e+00  -7.9004682612504267e+00  -7.8036289363777191e+00  -7.7093216684685792e+00  -7.6199467403145782e+00  -7.5378200367170596e+00  -7.4651217069139308e+00  -7.4038343582188606e+00  -7.3556698466876229e+00  -7.3219778023598270e+00  -7.3035899032693958e+00  -7.3003468540706642e+00  -8.5672333055324437e+00  -8.5638137737029574e+00  -8.5431012983365466e+00  -8.5051711758798056e+00  -8.4511466885975324e+00  -8.3826838201463474e+00  -8.3017985405778258e+00  -8.2107612044700478e+00  -8.1120145650857154e+00  -8.0081099033580987e+00  -7.9016594648480343e+00  -7.7953012655750031e+00  -7.6916701414701398e+00  -7.5933678118131240e+00  -7.5029248806331612e+00  -7.4227490984927362e+00  -7.3550565788085756e+00  -7.3017845290891064e+00  -7.2644788313545536e+00  -7.2441079206264458e+00  -7.2405265177634810e+00  -8.6334847787378397e+00  -8.6296724237180626e+00  -8.6067319174662344e+00  -8.5647999476912862e+00  -8.5051938202366077e+00  -8.4298192764706492e+00  -8.3409593161040920e+00  -8.2411429698171386e+00  -8.1330485281730791e+00  -8.0194353909825917e+00  -7.9031011273771306e+00  -7.7868571177791495e+00  -7.6735134217109415e+00  -7.5658622251141718e+00  -7.4666493836001928e+00  -7.3785252145787625e+00  -7.3039687370427631e+00  -7.2451827017342900e+00  -7.2039529016114976e+00  -7.1814213857564990e+00  -7.1774738156247091e+00  -8.7027002574967369e+00  -8.6984541828064330e+00  -8.6730854206585697e+00  -8.6268244294898135e+00  -8.5612378654634167e+00  -8.4785399391152616e+00  -8.3813286509792135e+00  -8.2724203334146189e+00  -8.1547353359253023e+00  -8.0312277183039473e+00  -7.9048523988102204e+00  -7.7785589914033340e+00  -7.6552986412183248e+00  -7.5380289253881276e+00  -7.4297020071302988e+00  -7.3332228012894394e+00  -7.2513673094577547e+00  -7.1866557709166639e+00  -7.1411736412828493e+00  -7.1162890647600303e+00  -7.1119450124420025e+00  -8.7738659191518025e+00  -8.7691398317771529e+00  -8.7411202380823134e+00  -8.6901814176627070e+00  -8.6182193915773748e+00  -8.5278377386457915e+00  -8.4220108286111550e+00  -8.3038732568139562e+00  -8.1765861200049237e+00  -8.0432691872013073e+00  -7.9069864666371785e+00  -7.7707682225710730e+00  -7.6376503142249854e+00  -7.5107110753847213e+00  -7.3930859252776040e+00  -7.2879406925778119e+00  -7.1983874150149720e+00  -7.1273316684977885e+00  -7.0772418615189068e+00  -7.0497886617530403e+00  -7.0450135782083372e+00  -8.8455714630259479e+00  -8.8403106370908784e+00  -8.8093813411487627e+00  -8.7533803905204994e+00  -8.6746511945982459e+00  -8.5762992128100777e+00  -8.4617531208657812e+00  -8.3344968557002108e+00  -8.1979177685259437e+00  -8.0552504796620230e+00  -7.9095931763305058e+00  -7.7639705905728897e+00  -7.6214184273333156e+00  -7.4850649612662767e+00  -7.3581851585188698e+00  -7.2442013329096584e+00  -7.1466043409837674e+00  -7.0687734475251638e+00  -7.0136774045227188e+00  -6.9834028789878797e+00  -6.9781550118279680e+00  -8.9159069596482805e+00  -8.9100428337853064e+00  -8.8758849655763203e+00  -8.8143791759723431e+00  -8.7284930768923488e+00  -8.6219901901544276e+00  -8.4988492790039913e+00  -8.3629287087236381e+00  -8.2178055945492243e+00  -8.0667484051161882e+00  -7.9127814218634702e+00  -7.7588036729125314e+00  -7.6077316591830133e+00  -7.4626393328332963e+00  -7.3268678332673423e+00  -7.2040718305641542e+00  -7.0981624997302601e+00  -7.0131052493201853e+00  -6.9525350715833074e+00  -6.9191260445504756e+00  -6.9133514666314282e+00  -8.9823343509655711e+00  -8.9757747547404527e+00  -8.9379698473118321e+00  -8.8704231142168020e+00  -8.7769941700704930e+00  -8.6623176413037317e+00  -8.5310311172241224e+00  -8.3873726646496269e+00  -8.2350366333683365e+00  -8.0772045059929258e+00  -7.9166805582508202e+00  -7.7560818211046207e+00  -7.5980496648075411e+00  -7.4454596216745115e+00  -7.3016042926900173e+00  -7.1703115069661534e+00  -7.0559399322543799e+00  -6.9631764154328248e+00  -6.8965546763250858e+00  -6.8595992152976129e+00  -6.8532235687026368e+00  -9.0415226635256669e+00  -9.0341335036138268e+00  -8.9920979362425815e+00  -8.9178325054329459e+00  -8.8164959784587982e+00  -8.6938722414796903e+00  -8.5553592999956560e+00  -8.4055328038404848e+00  -8.2480749701758036e+00  -8.0859103369909899e+00  -7.9214395125261827e+00  -7.7568105226612500e+00  -7.5942013522708391e+00  -7.4361030662098226e+00  -7.2855904269062970e+00  -7.1465454275320761e+00  -7.0237585424541598e+00  -6.9227810853428959e+00  -6.8493628305596159e+00  -6.8082876311979801e+00  -6.8012023164686699e+00  -9.0891271635261024e+00  -9.0806959527238735e+00  -9.0335730383897843e+00  -8.9517150270264025e+00  -8.8421924645311094e+00  -8.7122672484967261e+00  -8.5681397853588628e+00  -8.4145849796431484e+00  -8.2550600801569569e+00  -8.0920097350382871e+00  -7.9272215049302339e+00  -7.7621757879303068e+00  -7.5983847566954044e+00  -7.4377356001805639e+00  -7.2828511627463968e+00  -7.1374534206138200e+00  -7.0066508233661633e+00  -6.8969618475923786e+00  -6.8157592523693307e+00  -6.7697265680150309e+00  -6.7617650627178554e+00  -9.1194750784237097e+00  -9.1096314269574687e+00  -9.0561168295890564e+00  -8.9655703317732094e+00  -8.8478579129275250e+00  -8.7120168366224480e+00  -8.5649203912430583e+00  -8.4112347132229708e+00  -8.2538722037232262e+00  -8.0945340812483639e+00  -7.9341915328997672e+00  -7.7734865835348721e+00  -7.6130881322727131e+00  -7.4540563276848939e+00  -7.2982685046187159e+00  -7.1489383763688945e+00  -7.0111868545977654e+00  -6.8924440472660313e+00  -6.8021520597769536e+00  -6.7498878963383699e+00  -6.7407832172924813e+00  -9.1250844366844053e+00  -9.1131061094221355e+00  -9.0511855853241112e+00  -8.9507547065256094e+00  -8.8256000547590308e+00  -8.6865554437758963e+00  -8.5406682321701943e+00  -8.3919381108527933e+00  -8.2423121913559321e+00  -8.0924914260510494e+00  -7.9424935065265378e+00  -7.7920420510396653e+00  -7.6408743952151212e+00  -7.4890595955095325e+00  -7.3374222471672397e+00  -7.1881747983885393e+00  -7.0458299189390168e+00  -6.9182702890278032e+00  -6.8172751640506268e+00  -6.7567812419629840e+00  -6.7460835081482857e+00  -9.0958617365198133e+00  -9.0801501094554382e+00  -9.0068180449150859e+00  -8.8958343042773009e+00  -8.7658257030549418e+00  -8.6286116701644424e+00  -8.4902925505902971e+00  -8.3533865877871083e+00  -8.2184469790632431e+00  -8.0850289498283736e+00  -7.9522146808749756e+00  -7.8188970470298926e+00  -7.6839635564855353e+00  -7.5464877627192948e+00  -7.4060418014516038e+00  -7.2632957225576975e+00  -7.1211572959291543e+00  -6.9866984438414015e+00  -6.8734732844634845e+00  -6.8015657455448739e+00  -6.7884637217841792e+00  -9.0175734841880697e+00  -8.9941957379333228e+00  -8.9057434884298470e+00  -8.7861474943402893e+00  -8.6579181435675210e+00  -8.5313269497878998e+00  -8.4097297692884840e+00  -8.2933440672856715e+00  -8.1811434109244026e+00  -8.0716692186601211e+00  -7.9633353999125225e+00  -7.8545189444320753e+00  -7.7435740346895461e+00  -7.6288466530399379e+00  -7.5087707597885904e+00  -7.3822035833511652e+00  -7.2493651457249042e+00  -7.1141824933020272e+00  -6.9891376797189917e+00  -6.9009462636993799e+00  -6.8838197049965730e+00  -8.8680232122528277e+00  -8.8272883631808998e+00  -8.7229830386186631e+00  -8.6048888114581263e+00  -8.4927211082953917e+00  -8.3906629018001393e+00  -8.2977392886713162e+00  -8.2118028978470647e+00  -8.1307116221088602e+00  -8.0525621589675591e+00  -7.9756504429338522e+00  -7.8983650343813778e+00  -7.8190663043729671e+00  -7.7359599148996203e+00  -7.6469711731097512e+00  -7.5496695180231583e+00  -7.4414641346562647e+00  -7.3208981109825393e+00  -7.1928466595013987e+00  -7.0834718260067655e+00  -7.0584725061503146e+00  -8.6024081019616006e+00  -8.5271048349962975e+00  -8.4266428432605771e+00  -8.3395085732334771e+00  -8.2684981298709239e+00  -8.2093234647658004e+00  -8.1580817349058172e+00  -8.1120434348565116e+00  -8.0693220214749903e+00  -8.0285325031924284e+00  -7.9885590786101011e+00  -7.9483964307525055e+00  -7.9070223957865036e+00  -7.8632661145373142e+00  -7.8156321634716557e+00  -7.7620221148159816e+00  -7.6992661806000733e+00  -7.6224498495256645e+00  -7.5250191918831195e+00  -7.4085399607622975e+00  -7.3668028500679501e+00  -8.0000000000000000e+00  -8.0000000000000000e+00  -8.0000000000000000e+00  -8.0000000000000000e+00  -8.0000000000000000e+00  -8.0000000000000000e+00  -8.0000000000000000e+00  -8.0000000000000000e+00  -8.0000000000000000e+00  -8.0000000000000000e+00  -8.0000000000000000e+00  -8.0000000000000000e+00  -8.0000000000000000e+00  -8.0000000000000000e+00  -8.0000000000000000e+00  -8.0000000000000000e+00  -8.0000000000000000e+00  -8.0000000000000000e+00  -8.0000000000000000e+00  -8.0000000000000000e+00  -8.0000000000000000e+00  </DataArray> 
</PointData> 
</Piece>
</UnstructuredGrid>
</VTKFile>