<?xml version="1.0"?>
<VTKFile type="UnstructuredGrid"  version="0.1"  >
<UnstructuredGrid>
<Piece  NumberOfPoints="651" NumberOfCells="1200">
<Points>
<DataArray  type="Float64"  NumberOfComponents="3"  format="ascii">0 0 0  50000 0 0  100000 0 0  150000 0 0  200000 0 0  250000 0 0  300000 0 0  350000 0 0  400000 0 0  450000 0 0  500000 0 0  550000 0 0  600000 0 0  650000 0 0  700000 0 0  750000 0 0  800000 0 0  850000 0 0  900000 0 0  950000 0 0  1000000 0 0  0 50000 0  50000 50000 0  100000 50000 0  150000 50000 0  200000 50000 0  250000 50000 0  300000 50000 0  350000 50000 0  400000 50000 0  450000 50000 0  500000 50000 0  550000 50000 0  600000 50000 0  650000 50000 0  700000 50000 0  750000 50000 0  800000 50000 0  850000 50000 0  900000 50000 0  950000 50000 0  1000000 50000 0  0 100000 0  50000 100000 0  100000 100000 0  150000 100000 0  200000 100000 0  250000 100000 0  300000 100000 0  350000 100000 0  400000 100000 0  450000 100000 0  500000 100000 0  550000 100000 0  600000 100000 0  650000 100000 0  700000 100000 0  750000 100000 0  800000 100000 0  850000 100000 0  900000 100000 0  950000 100000 0  1000000 100000 0  0 150000 0  50000 150000 0  100000 150000 0  150000 150000 0  200000 150000 0  250000 150000 0  300000 150000 0  350000 150000 0  400000 150000 0  450000 150000 0  500000 150000 0  550000 150000 0  600000 150000 0  650000 150000 0  700000 150000 0  750000 150000 0  800000 150000 0  850000 150000 0  900000 150000 0  950000 150000 0  1000000 150000 0  0 200000 0  50000 200000 0  100000 200000 0  150000 200000 0  200000 200000 0  250000 200000 0  300000 200000 0  350000 200000 0  400000 200000 0  450000 200000 0  500000 200000 0  550000 200000 0  600000 200000 0  650000 200000 0  700000 200000 0  750000 200000 0  800000 200000 0  850000 200000 0  900000 200000 0  950000 200000 0  1000000 200000 0  0 250000 0  50000 250000 0  100000 250000 0  150000 250000 0  200000 250000 0  250000 250000 0  300000 250000 0  350000 250000 0  400000 250000 0  450000 250000 0  500000 250000 0  550000 250000 0  600000 250000 0  650000 250000 0  700000 250000 0  750000 250000 0  800000 250000 0  850000 250000 0  900000 250000 0  950000 250000 0  1000000 250000 0  0 300000 0  50000 300000 0  100000 300000 0  150000 300000 0  200000 300000 0  250000 300000 0  300000 300000 0  350000 300000 0  400000 300000 0  450000 300000 0  500000 300000 0  550000 300000 0  600000 300000 0  650000 300000 0  700000 300000 0  750000 300000 0  800000 300000 0  850000 300000 0  900000 300000 0  950000 300000 0  1000000 300000 0  0 350000 0  50000 350000 0  100000 350000 0  150000 350000 0  200000 350000 0  250000 350000 0  300000 350000 0  350000 350000 0  400000 350000 0  450000 350000 0  500000 350000 0  550000 350000 0  600000 350000 0  650000 350000 0  700000 350000 0  750000 350000 0  800000 350000 0  850000 350000 0  900000 350000 0  950000 350000 0  1000000 350000 0  0 400000 0  50000 400000 0  100000 400000 0  150000 400000 0  200000 400000 0  250000 400000 0  300000 400000 0  350000 400000 0  400000 400000 0  450000 400000 0  500000 400000 0  550000 400000 0  600000 400000 0  650000 400000 0  700000 400000 0  750000 400000 0  800000 400000 0  850000 400000 0  900000 400000 0  950000 400000 0  1000000 400000 0  0 450000 0  50000 450000 0  100000 450000 0  150000 450000 0  200000 450000 0  250000 450000 0  300000 450000 0  350000 450000 0  400000 450000 0  450000 450000 0  500000 450000 0  550000 450000 0  600000 450000 0  650000 450000 0  700000 450000 0  750000 450000 0  800000 450000 0  850000 450000 0  900000 450000 0  950000 450000 0  1000000 450000 0  0 500000 0  50000 500000 0  100000 500000 0  150000 500000 0  200000 500000 0  250000 500000 0  300000 500000 0  350000 500000 0  400000 500000 0  450000 500000 0  500000 500000 0  550000 500000 0  600000 500000 0  650000 500000 0  700000 500000 0  750000 500000 0  800000 500000 0  850000 500000 0  900000 500000 0  950000 500000 0  1000000 500000 0  0 550000 0  50000 550000 0  100000 550000 0  150000 550000 0  200000 550000 0  250000 550000 0  300000 550000 0  350000 550000 0  400000 550000 0  450000 550000 0  500000 550000 0  550000 550000 0  600000 550000 0  650000 550000 0  700000 550000 0  750000 550000 0  800000 550000 0  850000 550000 0  900000 550000 0  950000 550000 0  1000000 550000 0  0 600000 0  50000 600000 0  100000 600000 0  150000 600000 0  200000 600000 0  250000 600000 0  300000 600000 0  350000 600000 0  400000 600000 0  450000 600000 0  500000 600000 0  550000 600000 0  600000 600000 0  650000 600000 0  700000 600000 0  750000 600000 0  800000 600000 0  850000 600000 0  900000 600000 0  950000 600000 0  1000000 600000 0  0 650000 0  50000 650000 0  100000 650000 0  150000 650000 0  200000 650000 0  250000 650000 0  300000 650000 0  350000 650000 0  400000 650000 0  450000 650000 0  500000 650000 0  550000 650000 0  600000 650000 0  650000 650000 0  700000 650000 0  750000 650000 0  800000 650000 0  850000 650000 0  900000 650000 0  950000 650000 0  1000000 650000 0  0 700000 0  50000 700000 0  100000 700000 0  150000 700000 0  200000 700000 0  250000 700000 0  300000 700000 0  350000 700000 0  400000 700000 0  450000 700000 0  500000 700000 0  550000 700000 0  600000 700000 0  650000 700000 0  700000 700000 0  750000 700000 0  800000 700000 0  850000 700000 0  900000 700000 0  950000 700000 0  1000000 700000 0  0 750000 0  50000 750000 0  100000 750000 0  150000 750000 0  200000 750000 0  250000 750000 0  300000 750000 0  350000 750000 0  400000 750000 0  450000 750000 0  500000 750000 0  550000 750000 0  600000 750000 0  650000 750000 0  700000 750000 0  750000 750000 0  800000 750000 0  850000 750000 0  900000 750000 0  950000 750000 0  1000000 750000 0  0 800000 0  50000 800000 0  100000 800000 0  150000 800000 0  200000 800000 0  250000 800000 0  300000 800000 0  350000 800000 0  400000 800000 0  450000 800000 0  500000 800000 0  550000 800000 0  600000 800000 0  650000 800000 0  700000 800000 0  750000 800000 0  800000 800000 0  850000 800000 0  900000 800000 0  950000 800000 0  1000000 800000 0  0 850000 0  50000 850000 0  100000 850000 0  150000 850000 0  200000 850000 0  250000 850000 0  300000 850000 0  350000 850000 0  400000 850000 0  450000 850000 0  500000 850000 0  550000 850000 0  600000 850000 0  650000 850000 0  700000 850000 0  750000 850000 0  800000 850000 0  850000 850000 0  900000 850000 0  950000 850000 0  1000000 850000 0  0 900000 0  50000 900000 0  100000 900000 0  150000 900000 0  200000 900000 0  250000 900000 0  300000 900000 0  350000 900000 0  400000 900000 0  450000 900000 0  500000 900000 0  550000 900000 0  600000 900000 0  650000 900000 0  700000 900000 0  750000 900000 0  800000 900000 0  850000 900000 0  900000 900000 0  950000 900000 0  1000000 900000 0  0 950000 0  50000 950000 0  100000 950000 0  150000 950000 0  200000 950000 0  250000 950000 0  300000 950000 0  350000 950000 0  400000 950000 0  450000 950000 0  500000 950000 0  550000 950000 0  600000 950000 0  650000 950000 0  700000 950000 0  750000 950000 0  800000 950000 0  850000 950000 0  900000 950000 0  950000 950000 0  1000000 950000 0  0 1000000 0  50000 1000000 0  100000 1000000 0  150000 1000000 0  200000 1000000 0  250000 1000000 0  300000 1000000 0  350000 1000000 0  400000 1000000 0  450000 1000000 0  500000 1000000 0  550000 1000000 0  600000 1000000 0  650000 1000000 0  700000 1000000 0  750000 1000000 0  800000 1000000 0  850000 1000000 0  900000 1000000 0  950000 1000000 0  1000000 1000000 0  0 1050000 0  50000 1050000 0  100000 1050000 0  150000 1050000 0  200000 1050000 0  250000 1050000 0  300000 1050000 0  350000 1050000 0  400000 1050000 0  450000 1050000 0  500000 1050000 0  550000 1050000 0  600000 1050000 0  650000 1050000 0  700000 1050000 0  750000 1050000 0  800000 1050000 0  850000 1050000 0  900000 1050000 0  950000 1050000 0  1000000 1050000 0  0 1100000 0  50000 1100000 0  100000 1100000 0  150000 1100000 0  200000 1100000 0  250000 1100000 0  300000 1100000 0  350000 1100000 0  400000 1100000 0  450000 1100000 0  500000 1100000 0  550000 1100000 0  600000 1100000 0  650000 1100000 0  700000 1100000 0  750000 1100000 0  800000 1100000 0  850000 1100000 0  900000 1100000 0  950000 1100000 0  1000000 1100000 0  0 1150000 0  50000 1150000 0  100000 1150000 0  150000 1150000 0  200000 1150000 0  250000 1150000 0  300000 1150000 0  350000 1150000 0  400000 1150000 0  450000 1150000 0  500000 1150000 0  550000 1150000 0  600000 1150000 0  650000 1150000 0  700000 1150000 0  750000 1150000 0  800000 1150000 0  850000 1150000 0  900000 1150000 0  950000 1150000 0  1000000 1150000 0  0 1200000 0  50000 1200000 0  100000 1200000 0  150000 1200000 0  200000 1200000 0  250000 1200000 0  300000 1200000 0  350000 1200000 0  400000 1200000 0  450000 1200000 0  500000 1200000 0  550000 1200000 0  600000 1200000 0  650000 1200000 0  700000 1200000 0  750000 1200000 0  800000 1200000 0  850000 1200000 0  900000 1200000 0  950000 1200000 0  1000000 1200000 0  0 1250000 0  50000 1250000 0  100000 1250000 0  150000 1250000 0  200000 1250000 0  250000 1250000 0  300000 1250000 0  350000 1250000 0  400000 1250000 0  450000 1250000 0  500000 1250000 0  550000 1250000 0  600000 1250000 0  650000 1250000 0  700000 1250000 0  750000 1250000 0  800000 1250000 0  850000 1250000 0  900000 1250000 0  950000 1250000 0  1000000 1250000 0  0 1300000 0  50000 1300000 0  100000 1300000 0  150000 1300000 0  200000 1300000 0  250000 1300000 0  300000 1300000 0  350000 1300000 0  400000 1300000 0  450000 1300000 0  500000 1300000 0  550000 1300000 0  600000 1300000 0  650000 1300000 0  700000 1300000 0  750000 1300000 0  800000 1300000 0  850000 1300000 0  900000 1300000 0  950000 1300000 0  1000000 1300000 0  0 1350000 0  50000 1350000 0  100000 1350000 0  150000 1350000 0  200000 1350000 0  250000 1350000 0  300000 1350000 0  350000 1350000 0  400000 1350000 0  450000 1350000 0  500000 1350000 0  550000 1350000 0  600000 1350000 0  650000 1350000 0  700000 135
[...]
<PointData  Scalars="f_21"> 
<DataArray  type="Float64"  Name="f_21"  format="ascii">-8.0978495491480658e+00  -8.0964801095021421e+00  -8.0897466766541672e+00  -8.0776279210835416e+00  -8.0604363204568639e+00  -8.0386280818739486e+00  -8.0127819031168812e+00  -7.9835823867550504e+00  -7.9518015896136642e+00  -7.9182783546128475e+00  -7.8838959405278324e+00  -7.8495585550933598e+00  -7.8161674034183424e+00  -7.7845968709897031e+00  -7.7556714837501568e+00  -7.7301443743358602e+00  -7.7086783127609362e+00  -7.6918313904597131e+00  -7.6800506666623134e+00  -7.6736501090305769e+00  -7.6722664880765761e+00  -8.0991628424392133e+00  -8.0978233909427022e+00  -8.0909934975495830e+00  -8.0787939020097870e+00  -8.0615120696454436e+00  -8.0395957750301061e+00  -8.0136216999769463e+00  -7.9842755617319989e+00  -7.9523321299135041e+00  -7.9186338573697821e+00  -7.8840681466358049e+00  -7.8495436461939221e+00  -7.8159661064268704e+00  -7.7842143730254216e+00  -7.7551171150987468e+00  -7.7294308892073005e+00  -7.7078200610083076e+00  -7.6908384765659115e+00  -7.6789093419327479e+00  -7.6722840908894145e+00  -7.6709000726055212e+00  -8.1054989913213831e+00  -8.1042509880939857e+00  -8.0972630540484918e+00  -8.0846948440360560e+00  -8.0668904906258607e+00  -8.0443205563892182e+00  -8.0175790987080902e+00  -7.9873702873486216e+00  -7.9544898103545743e+00  -7.9198032597243539e+00  -7.8842227206120148e+00  -7.8486823159558297e+00  -7.8141133139688703e+00  -7.7814193877517610e+00  -7.7514526328860001e+00  -7.7249909870674918e+00  -7.7027177560765159e+00  -7.6852039570612281e+00  -7.6728934968272950e+00  -7.6660847392513132e+00  -7.6648421354277323e+00  -8.1167799633508171e+00  -8.1155443986776188e+00  -8.1082927265359519e+00  -8.0951259777995404e+00  -8.0764234394411840e+00  -8.0526989088762964e+00  -8.0245858824439331e+00  -7.9928279871072547e+00  -7.9582624386495304e+00  -7.9217987862113990e+00  -7.8843949816119983e+00  -7.8470320170625252e+00  -7.8106879908094982e+00  -7.7763123218569685e+00  -7.7448008307773426e+00  -7.7169724994844291e+00  -7.6935489170682256e+00  -7.6751375244473445e+00  -7.6622181185818796e+00  -7.6551181120801370e+00  -7.6538731653557059e+00  -8.1328322272049682e+00  -8.1315600067540270e+00  -8.1238937693371920e+00  -8.1098836591467727e+00  -8.0899239951433053e+00  -8.0645727818737249e+00  -8.0345169076264575e+00  -8.0005576799813163e+00  -7.9635936086372219e+00  -7.9245987027899663e+00  -7.8845976898544849e+00  -7.8446394933183425e+00  -7.8057699847014455e+00  -7.7690048573873947e+00  -7.7353034457109162e+00  -7.7055443924224054e+00  -7.6805041553691664e+00  -7.6608389217856629e+00  -7.6470669603873862e+00  -7.6395295863629302e+00  -7.6382140396234863e+00  -8.1535575624164576e+00  -8.1522117756668084e+00  -8.1439742416667773e+00  -8.1288612643710270e+00  -8.1072823769669817e+00  -8.0798412673796278e+00  -8.0472875735198937e+00  -8.0104952005568819e+00  -7.9704418312038685e+00  -7.9281853274471175e+00  -7.8848373348384158e+00  -7.8415351206231483e+00  -7.7994126254925034e+00  -7.7595716031471431e+00  -7.7230536915188468e+00  -7.6908142796490280e+00  -7.6636989334589476e+00  -7.6424222239078263e+00  -7.6275442129179760e+00  -7.6194194221389564e+00  -7.6179959451495671e+00  -8.1789275708164944e+00  -8.1774767245787068e+00  -8.1685124916548073e+00  -8.1520303505746856e+00  -8.1284631549062194e+00  -8.0984668695146347e+00  -8.0628635584795276e+00  -8.0226133327872855e+00  -7.9787895710728804e+00  -7.9325523002792053e+00  -7.8851193592146345e+00  -7.8377360145668948e+00  -7.7916438473342504e+00  -7.7480497011683118e+00  -7.7080954638138754e+00  -7.6728294294364963e+00  -7.6431797683721241e+00  -7.6199294734360210e+00  -7.6036871751630510e+00  -7.5948269179890211e+00  -7.5932673200106278e+00  -8.2089693639507288e+00  -8.2073842276962488e+00  -8.1975391236435673e+00  -8.1794171839531380e+00  -8.1534850662528857e+00  -8.1204611489792793e+00  -8.0812514561693707e+00  -8.0369162098930946e+00  -7.9886405748834628e+00  -7.9377043822462436e+00  -7.8854502146263545e+00  -7.8332502794486096e+00  -7.7824726942928883e+00  -7.7344478185193708e+00  -7.6904352611074120e+00  -7.6515921709582546e+00  -7.6189431772249305e+00  -7.5933511447455286e+00  -7.5754827377888567e+00  -7.5657401688521873e+00  -7.5640189526912271e+00  -8.2437496616278647e+00  -8.2420017171813296e+00  -8.2311209840506070e+00  -8.2110838567926177e+00  -8.1824018282604456e+00  -8.1458679124283062e+00  -8.1024854734226270e+00  -8.0534297130090646e+00  -8.0000138719256189e+00  -7.9436549382465067e+00  -7.8858382402389431e+00  -7.8280812193084017e+00  -7.7718968123697163e+00  -7.7187568664086790e+00  -7.6700560188647966e+00  -7.6270764959074651e+00  -7.5909541060433892e+00  -7.5626445491443794e+00  -7.5428837532392210e+00  -7.5321113977854601e+00  -7.5302038073949147e+00  -8.2833577320782688e+00  -8.2814183095681138e+00  -8.2693447712968258e+00  -8.2471109692232130e+00  -8.2152845448196636e+00  -8.1747468217957202e+00  -8.1266134950423705e+00  -8.0721907487349309e+00  -8.0129366621599623e+00  -7.9504226248928349e+00  -7.8862942057033063e+00  -7.8222316802123029e+00  -7.7599104246075674e+00  -7.7009613170100693e+00  -7.6469313118793210e+00  -7.5992444493341971e+00  -7.5591635101841463e+00  -7.5277514565714769e+00  -7.5058260667891394e+00  -7.4938741641598074e+00  -7.4917554532525674e+00  -8.3278865313892023e+00  -8.3257262581769691e+00  -8.3122988728787952e+00  -8.2875794818801136e+00  -8.2522038271228215e+00  -8.2071566317181865e+00  -8.1536824719414511e+00  -8.0932356834473413e+00  -8.0274364494532247e+00  -7.9580276292597159e+00  -7.8868318301518672e+00  -7.8157088023071761e+00  -7.7465130550972612e+00  -7.6810514340939431e+00  -7.6210404352152601e+00  -7.5680632424036052e+00  -7.5235266046251290e+00  -7.4886167266866996e+00  -7.4642472399980200e+00  -7.4509624575260602e+00  -7.4486075481085834e+00  -8.3774111823964557e+00  -8.3749995934253683e+00  -8.3600524016741193e+00  -8.3325501459067297e+00  -8.2932098915316121e+00  -8.2431366433193265e+00  -8.1837221711067460e+00  -8.1165873518505336e+00  -8.0435321218206433e+00  -7.9664873867049213e+00  -7.8874684071840404e+00  -7.8085295081612607e+00  -7.7317195331918143e+00  -7.6590371783898350e+00  -7.5923853939619441e+00  -7.5335244076996428e+00  -7.4840233076460851e+00  -7.4452093861697080e+00  -7.4181079719674070e+00  -7.4033324556471545e+00  -7.4007157611744008e+00  -8.4319638146964042e+00  -8.4292690496156393e+00  -8.4126304174770095e+00  -8.3820391939114263e+00  -8.3383091303630348e+00  -8.2826849185256020e+00  -8.2167260634930113e+00  -8.1422397270515088e+00  -8.0612233961844186e+00  -7.9758115246393793e+00  -7.8882256069673868e+00  -7.8007271150272910e+00  -7.7155719696062910e+00  -7.6349647626798554e+00  -7.5610110221510887e+00  -7.4956663877516601e+00  -7.4406823039906600e+00  -7.3975474369398331e+00  -7.3674172685496213e+00  -7.3509879212219111e+00  -7.3480832468114050e+00  -8.4915036662845047e+00  -8.4884922006956884e+00  -8.4699841878063182e+00  -8.4359889592389585e+00  -8.3874356619791062e+00  -8.3257317394930741e+00  -8.2526279769458082e+00  -8.1701391505456495e+00  -8.0804778778643254e+00  -7.9859956765831077e+00  -7.8891305089934622e+00  -7.7923595269731267e+00  -7.6981545339831428e+00  -7.6089370053317742e+00  -7.5270296132269046e+00  -7.4546020545152256e+00  -7.3936102014586851e+00  -7.3457277278092441e+00  -7.3122625257934315e+00  -7.2940103376331429e+00  -7.2907907966707315e+00  -8.5558812098577253e+00  -8.5525175637698077e+00  -8.5319551514840626e+00  -8.4942319138481093e+00  -8.4404161989454476e+00  -8.3721066208624890e+00  -8.2912729533559659e+00  -8.2001608428480619e+00  -8.1012148463270375e+00  -7.9970137335831017e+00  -7.8902169153060147e+00  -7.7835195350845776e+00  -7.6796120045400880e+00  -7.5811388226552090e+00  -7.4906516591719132e+00  -7.4105528673170831e+00  -7.3430274463934637e+00  -7.2899624024431224e+00  -7.2528458684598700e+00  -7.2325950278478714e+00  -7.2290329073595130e+00  -8.6247949030479631e+00  -8.6210412452997396e+00  -8.5982310048558048e+00  -8.5564463247758127e+00  -8.4969262665023244e+00  -8.4214968903987479e+00  -8.3323804972665130e+00  -8.2320792207920697e+00  -8.1232847483658954e+00  -8.0088080343172212e+00  -7.8915269926186777e+00  -7.7743478206292220e+00  -7.6601732014210402e+00  -7.5518694173119130e+00  -7.4522245767470485e+00  -7.3638916959683991e+00  -7.2893129850182081e+00  -7.2306237271791503e+00  -7.1895283222466011e+00  -7.1670946828282354e+00  -7.1631611634543884e+00  -8.6977389536153549e+00  -8.6935544725396010e+00  -8.6682920054764825e+00  -8.6221013164001228e+00  -8.5564353652191087e+00  -8.4733954644018432e+00  -8.3754981130357944e+00  -8.2655303659641461e+00  -8.1464432843400392e+00  -8.0212769532006654e+00  -7.8931132838712870e+00  -7.7650492888812135e+00  -7.6401805183791707e+00  -7.5215829279693569e+00  -7.4122816274493335e+00  -7.3151967609149295e+00  -7.2330601182219390e+00  -7.1682995226563957e+00  -7.1228837277959922e+00  -7.0980719708009090e+00  -7.0937365602918252e+00  -8.7739402003818281e+00  -8.7692800253863599e+00  -8.7413451201457324e+00  -8.6903885371150054e+00  -8.6181380836737542e+00  -8.5270349897560482e+00  -8.4199427737822674e+00  -8.2999649135172540e+00  -8.1703189933200946e+00  -8.0342593693677884e+00  -7.8950411039720709e+00  -7.7559132985273029e+00  -7.6201267402100248e+00  -7.4909394123277719e+00  -7.3716035514275173e+00  -7.2653196613383750e+00  -7.1751466322098105e+00  -7.1038620352350534e+00  -7.0537647888891115e+00  -7.0263632559584579e+00  -7.0215927203371242e+00  -8.8522817616164868e+00  -8.8470950707337916e+00  -8.8162429124377706e+00  -8.7601367557245347e+00  -8.6808673949896100e+00  -8.5813050765004473e+00  -8.4647279075900581e+00  -8.3345898554677440e+00  -8.1943735435598342e+00  -8.0475156740350915e+00  -7.8973912723877069e+00  -7.7473380756401466e+00  -7.6006999926614860e+00  -7.4608678487529065e+00  -7.3312955956025041e+00  -7.2154710352121674e+00  -7.1168231596304317e+00  -7.0385540117923373e+00  -6.9833844122753099e+00  -6.9531560240312862e+00  -6.9479124828583156e+00  -8.9312103411889918e+00  -8.9254370202305058e+00  -8.8913828307882046e+00  -8.8297043552968475e+00  -8.7429853785818850e+00  -8.6346490755698504e+00  -8.5084739503596012e+00  -8.3682986452433514e+00  -8.2178548146759134e+00  -8.0607054520183041e+00  -7.9002630070655728e+00  -7.7398589056877150e+00  -7.5828366827391926e+00  -7.4326419884956918e+00  -7.2928823285859918e+00  -7.1673279077310026e+00  -7.0598249290399835e+00  -6.9740972158240719e+00  -6.9134167888821159e+00  -6.8800835891578549e+00  -6.8743212518696053e+00  -9.0086227069479765e+00  -9.0021874132646964e+00  -8.9645803464395026e+00  -8.8968424983215044e+00  -8.8022454036823081e+00  -8.6849371680037386e+00  -8.5493021394891677e+00  -8.3995912089389471e+00  -8.2397448200640806e+00  -8.0733630032973576e+00  -7.9037765645187115e+00  -7.7341782468858824e+00  -7.5677800786618725e+00  -7.4079676867611504e+00  -7.2584213011873970e+00  -7.1231669372609847e+00  -7.0065137054794491e+00  -6.9128310673841202e+00  -6.8461249726585027e+00  -6.8093424305775230e+00  -6.8030021324030416e+00  -9.0817242722839744e+00  -9.0745257029280086e+00  -9.0329052418710258e+00  -8.9585181199067296e+00  -8.8556186021706029e+00  -8.7293143393427446e+00  -8.5847152202034955e+00  -8.4264901198500439e+00  -8.2587083337469238e+00  -8.0848738139743919e+00  -7.9080748001842656e+00  -7.7311932148893092e+00  -7.5571378469874215e+00  -7.3890755899250120e+00  -7.2306330444553586e+00  -7.0860268211257109e+00  -6.9600588561407060e+00  -6.8578932667100441e+00  -6.7845260140841619e+00  -6.7438408622672892e+00  -6.7368409905016797e+00  -9.1468477456018302e+00  -9.1387385292974876e+00  -9.0924623031762586e+00  -9.0106800126255475e+00  -8.8990771287460291e+00  -8.7640271533887670e+00  -8.6114773088049130e+00  -8.4464679788455221e+00  -8.2730547779646439e+00  -8.0944583787133038e+00  -7.9133221876140567e+00  -7.7320113657341718e+00  -7.5529241458514162e+00  -7.3788037886486757e+00  -7.2130367943452907e+00  -7.0598992914231395e+00  -6.9246687524669968e+00  -6.8134614925907035e+00  -6.7326130305207643e+00  -6.6873943083158629e+00  -6.6796156243065958e+00  -9.1992100936852630e+00  -9.1899567326372864e+00  -9.1380816957615227e+00  -9.0479423502334786e+00  -8.9273301792825208e+00  -8.7842465257726943e+00  -8.6255220518991607e+00  -8.4564162048111235e+00  -8.2807364753094870e+00  -8.1011747311495288e+00  -7.9196989905647346e+00  -7.7379389545711676e+00  -7.5575594020099359e+00  -7.3806383359900183e+00  -7.2100643417134602e+00  -7.0499371435522651e+00  -6.9058843577362001e+00  -6.7850876295278884e+00  -6.6956703106457054e+00  -6.6449958535564253e+00  -6.6362554672515772e+00  -9.2325666942108899e+00  -9.2217621823940430e+00  -9.1628523754943174e+00  -9.0631495826245860e+00  -8.9335246250479283e+00  -8.7839340252729432e+00  -8.6219490686210634e+00  -8.4527089426563524e+00  -8.2794207243306506e+00  -8.1039572943693816e+00  -7.9273874432674303e+00  -7.7504174571691147e+00  -7.5737832926147357e+00  -7.3986519558853274e+00  -7.2270907604416692e+00  -7.0626394245974415e+00  -6.9109391690866584e+00  -6.7801758440580411e+00  -6.6807524253551627e+00  -6.6232196460193391e+00  -6.6132242657283768e+00  -9.2386818662057113e+00  -9.2255323909736919e+00  -9.1573701432618595e+00  -9.0467874025158306e+00  -8.9089736127582473e+00  -8.7558635584188202e+00  -8.5952196157252843e+00  -8.4314465022680984e+00  -8.2666879168697207e+00  -8.1017150207663651e+00  -7.9365465014834049e+00  -7.7708772210383374e+00  -7.6044171902175988e+00  -7.4372418160800509e+00  -7.2702587775176744e+00  -7.1059047187810265e+00  -6.9491506839721922e+00  -6.8086811184787948e+00  -6.6974739210063889e+00  -6.6308825246758438e+00  -6.6191378406744308e+00  -9.2064460832224331e+00  -9.1891937206271237e+00  -9.1084696966687986e+00  -8.9862713129719989e+00  -8.8431193912027641e+00  -8.6920335820500316e+00  -8.5397326146010712e+00  -8.3889892706605362e+00  -8.2404120014237723e+00  -8.0935102415113622e+00  -7.9472725590296545e+00  -7.8004790958054979e+00  -7.6519040777184548e+00  -7.5005265751100794e+00  -7.3458747343344521e+00  -7.1886860602008245e+00  -7.0321634089030427e+00  -6.8840980799357814e+00  -6.7594240724301660e+00  -6.6802677160262141e+00  -6.6658821601183078e+00  -9.1201946797911777e+00  -9.0945119493982212e+00  -8.9971427157953379e+00  -8.8654659868785828e+00  -8.7242801368129914e+00  -8.5848994625557289e+00  -8.4510196969743046e+00  -8.3228796413321025e+00  -8.1993482356491043e+00  -8.0788186863459277e+00  -7.9595439219135260e+00  -7.8397362628242231e+00  -7.7175828609685251e+00  -7.5912616909042585e+00  -7.4590474040439876e+00  -7.3196806325809245e+00  -7.1734031492095891e+00  -7.0245413142186042e+00  -6.8868492077134738e+00  -6.7897626489720970e+00  -6.7709547883245742e+00  -8.9555034526139163e+00  -8.9107207581377548e+00  -8.7958995088352303e+00  -8.6658807629104011e+00  -8.5423860827543887e+00  -8.4300245774108777e+00  -8.3277225180862064e+00  -8.2331145420049889e+00  -8.1438412800606255e+00  -8.0578065851397209e+00  -7.9731338566424057e+00  -7.8880485270150791e+00  -7.8007449160195641e+00  -7.7092467965734945e+00  -7.6112688994468529e+00  -7.5041336186800738e+00  -7.3849864569793446e+00  -7.2522221244903529e+00  -7.1112135743632727e+00  -6.9907940345351989e+00  -6.9633292526929900e+00  -8.6630850761548661e+00  -8.5802377727354884e+00  -8.4696469391290812e+00  -8.3737175465402309e+00  -8.2955411845303964e+00  -8.2303980113592186e+00  -8.1739898753609914e+00  -8.1233107098533388e+00  -8.0762830147682738e+00  -8.0313817753169072e+00  -7.9873784735459736e+00  -7.9431662562937584e+00  -7.8976196748090137e+00  -7.8494494447121603e+00  -7.7970086951666540e+00  -7.7379861896542650e+00  -7.6688902973263433e+00  -7.5843072957861750e+00  -7.4770187668490431e+00  -7.3487571615905454e+00  -7.3028651459274068e+00  -8.0000000000000000e+00  -8.0000000000000000e+00  -8.0000000000000000e+00  -8.0000000000000000e+00  -8.0000000000000000e+00  -8.0000000000000000e+00  -8.0000000000000000e+00  -8.0000000000000000e+00  -8.0000000000000000e+00  -8.0000000000000000e+00  -8.0000000000000000e+00  -8.0000000000000000e+00  -8.0000000000000000e+00  -8.0000000000000000e+00  -8.0000000000000000e+00  -8.0000000000000000e+00  -8.0000000000000000e+00  -8.0000000000000000e+00  -8.0000000000000000e+00  -8.0000000000000000e+00  -8.0000000000000000e+00  </DataArray> 
</PointData> 
</Piece>
</UnstructuredGrid>
</VTKFile>