<?xml version="1.0"?>
<VTKFile type="UnstructuredGrid"  version="0.1"  >
<UnstructuredGrid>
<Piece  NumberOfPoints="651" NumberOfCells="1200">
<Points>
<DataArray  type="Float64"  NumberOfComponents="3"  format="ascii">0 0 0  50000 0 0  100000 0 0  150000 0 0  200000 0 0  250000 0 0  300000 0 0  350000 0 0  400000 0 0  450000 0 0  500000 0 0  550000 0 0  600000 0 0  650000 0 0  700000 0 0  750000 0 0  800000 0 0  850000 0 0  900000 0 0  950000 0 0  1000000 0 0  0 50000 0  50000 50000 0  100000 50000 0  150000 50000 0  200000 50000 0  250000 50000 0  300000 50000 0  350000 50000 0  400000 50000 0  450000 50000 0  500000 50000 0  550000 50000 0  600000 50000 0  650000 50000 0  700000 50000 0  750000 50000 0  800000 50000 0  850000 50000 0  900000 50000 0  950000 50000 0  1000000 50000 0  0 100000 0  50000 100000 0  100000 100000 0  150000 100000 0  200000 100000 0  250000 100000 0  300000 100000 0  350000 100000 0  400000 100000 0  450000 100000 0  500000 100000 0  550000 100000 0  600000 100000 0  650000 100000 0  700000 100000 0  750000 100000 0  800000 100000 0  850000 100000 0  900000 100000 0  950000 100000 0  1000000 100000 0  0 150000 0  50000 150000 0  100000 150000 0  150000 150000 0  200000 150000 0  250000 150000 0  300000 150000 0  350000 150000 0  400000 150000 0  450000 150000 0  500000 150000 0  550000 150000 0  600000 150000 0  650000 150000 0  700000 150000 0  750000 150000 0  800000 150000 0  850000 150000 0  900000 150000 0  950000 150000 0  1000000 150000 0  0 200000 0  50000 200000 0  100000 200000 0  150000 200000 0  200000 200000 0  250000 200000 0  300000 200000 0  350000 200000 0  400000 200000 0  450000 200000 0  500000 200000 0  550000 200000 0  600000 200000 0  650000 200000 0  700000 200000 0  750000 200000 0  800000 200000 0  850000 200000 0  900000 200000 0  950000 200000 0  1000000 200000 0  0 250000 0  50000 250000 0  100000 250000 0  150000 250000 0  200000 250000 0  250000 250000 0  300000 250000 0  350000 250000 0  400000 250000 0  450000 250000 0  500000 250000 0  550000 250000 0  600000 250000 0  650000 250000 0  700000 250000 0  750000 250000 0  800000 250000 0  850000 250000 0  900000 250000 0  950000 250000 0  1000000 250000 0  0 300000 0  50000 300000 0  100000 300000 0  150000 300000 0  200000 300000 0  250000 300000 0  300000 300000 0  350000 300000 0  400000 300000 0  450000 300000 0  500000 300000 0  550000 300000 0  600000 300000 0  650000 300000 0  700000 300000 0  750000 300000 0  800000 300000 0  850000 300000 0  900000 300000 0  950000 300000 0  1000000 300000 0  0 350000 0  50000 350000 0  100000 350000 0  150000 350000 0  200000 350000 0  250000 350000 0  300000 350000 0  350000 350000 0  400000 350000 0  450000 350000 0  500000 350000 0  550000 350000 0  600000 350000 0  650000 350000 0  700000 350000 0  750000 350000 0  800000 350000 0  850000 350000 0  900000 350000 0  950000 350000 0  1000000 350000 0  0 400000 0  50000 400000 0  100000 400000 0  150000 400000 0  200000 400000 0  250000 400000 0  300000 400000 0  350000 400000 0  400000 400000 0  450000 400000 0  500000 400000 0  550000 400000 0  600000 400000 0  650000 400000 0  700000 400000 0  750000 400000 0  800000 400000 0  850000 400000 0  900000 400000 0  950000 400000 0  1000000 400000 0  0 450000 0  50000 450000 0  100000 450000 0  150000 450000 0  200000 450000 0  250000 450000 0  300000 450000 0  350000 450000 0  400000 450000 0  450000 450000 0  500000 450000 0  550000 450000 0  600000 450000 0  650000 450000 0  700000 450000 0  750000 450000 0  800000 450000 0  850000 450000 0  900000 450000 0  950000 450000 0  1000000 450000 0  0 500000 0  50000 500000 0  100000 500000 0  150000 500000 0  200000 500000 0  250000 500000 0  300000 500000 0  350000 500000 0  400000 500000 0  450000 500000 0  500000 500000 0  550000 500000 0  600000 500000 0  650000 500000 0  700000 500000 0  750000 500000 0  800000 500000 0  850000 500000 0  900000 500000 0  950000 500000 0  1000000 500000 0  0 550000 0  50000 550000 0  100000 550000 0  150000 550000 0  200000 550000 0  250000 550000 0  300000 550000 0  350000 550000 0  400000 550000 0  450000 550000 0  500000 550000 0  550000 550000 0  600000 550000 0  650000 550000 0  700000 550000 0  750000 550000 0  800000 550000 0  850000 550000 0  900000 550000 0  950000 550000 0  1000000 550000 0  0 600000 0  50000 600000 0  100000 600000 0  150000 600000 0  200000 600000 0  250000 600000 0  300000 600000 0  350000 600000 0  400000 600000 0  450000 600000 0  500000 600000 0  550000 600000 0  600000 600000 0  650000 600000 0  700000 600000 0  750000 600000 0  800000 600000 0  850000 600000 0  900000 600000 0  950000 600000 0  1000000 600000 0  0 650000 0  50000 650000 0  100000 650000 0  150000 650000 0  200000 650000 0  250000 650000 0  300000 650000 0  350000 650000 0  400000 650000 0  450000 650000 0  500000 650000 0  550000 650000 0  600000 650000 0  650000 650000 0  700000 650000 0  750000 650000 0  800000 650000 0  850000 650000 0  900000 650000 0  950000 650000 0  1000000 650000 0  0 700000 0  50000 700000 0  100000 700000 0  150000 700000 0  200000 700000 0  250000 700000 0  300000 700000 0  350000 700000 0  400000 700000 0  450000 700000 0  500000 700000 0  550000 700000 0  600000 700000 0  650000 700000 0  700000 700000 0  750000 700000 0  800000 700000 0  850000 700000 0  900000 700000 0  950000 700000 0  1000000 700000 0  0 750000 0  50000 750000 0  100000 750000 0  150000 750000 0  200000 750000 0  250000 750000 0  300000 750000 0  350000 750000 0  400000 750000 0  450000 750000 0  500000 750000 0  550000 750000 0  600000 750000 0  650000 750000 0  700000 750000 0  750000 750000 0  800000 750000 0  850000 750000 0  900000 750000 0  950000 750000 0  1000000 750000 0  0 800000 0  50000 800000 0  100000 800000 0  150000 800000 0  200000 800000 0  250000 800000 0  300000 800000 0  350000 800000 0  400000 800000 0  450000 800000 0  500000 800000 0  550000 800000 0  600000 800000 0  650000 800000 0  700000 800000 0  750000 800000 0  800000 800000 0  850000 800000 0  900000 800000 0  950000 800000 0  1000000 800000 0  0 850000 0  50000 850000 0  100000 850000 0  150000 850000 0  200000 850000 0  250000 850000 0  300000 850000 0  350000 850000 0  400000 850000 0  450000 850000 0  500000 850000 0  550000 850000 0  600000 850000 0  650000 850000 0  700000 850000 0  750000 850000 0  800000 850000 0  850000 850000 0  900000 850000 0  950000 850000 0  1000000 850000 0  0 900000 0  50000 900000 0  100000 900000 0  150000 900000 0  200000 900000 0  250000 900000 0  300000 900000 0  350000 900000 0  400000 900000 0  450000 900000 0  500000 900000 0  550000 900000 0  600000 900000 0  650000 900000 0  700000 900000 0  750000 900000 0  800000 900000 0  850000 900000 0  900000 900000 0  950000 900000 0  1000000 900000 0  0 950000 0  50000 950000 0  100000 950000 0  150000 950000 0  200000 950000 0  250000 950000 0  300000 950000 0  350000 950000 0  400000 950000 0  450000 950000 0  500000 950000 0  550000 950000 0  600000 950000 0  650000 950000 0  700000 950000 0  750000 950000 0  800000 950000 0  850000 950000 0  900000 950000 0  950000 950000 0  1000000 950000 0  0 1000000 0  50000 1000000 0  100000 1000000 0  150000 1000000 0  200000 1000000 0  250000 1000000 0  300000 1000000 0  350000 1000000 0  400000 1000000 0  450000 1000000 0  500000 1000000 0  550000 1000000 0  600000 1000000 0  650000 1000000 0  700000 1000000 0  750000 1000000 0  800000 1000000 0  850000 1000000 0  900000 1000000 0  950000 1000000 0  1000000 1000000 0  0 1050000 0  50000 1050000 0  100000 1050000 0  150000 1050000 0  200000 1050000 0  250000 1050000 0  300000 1050000 0  350000 1050000 0  400000 1050000 0  450000 1050000 0  500000 1050000 0  550000 1050000 0  600000 1050000 0  650000 1050000 0  700000 1050000 0  750000 1050000 0  800000 1050000 0  850000 1050000 0  900000 1050000 0  950000 1050000 0  1000000 1050000 0  0 1100000 0  50000 1100000 0  100000 1100000 0  150000 1100000 0  200000 1100000 0  250000 1100000 0  300000 1100000 0  350000 1100000 0  400000 1100000 0  450000 1100000 0  500000 1100000 0  550000 1100000 0  600000 1100000 0  650000 1100000 0  700000 1100000 0  750000 1100000 0  800000 1100000 0  850000 1100000 0  900000 1100000 0  950000 1100000 0  1000000 1100000 0  0 1150000 0  50000 1150000 0  100000 1150000 0  150000 1150000 0  200000 1150000 0  250000 1150000 0  300000 1150000 0  350000 1150000 0  400000 1150000 0  450000 1150000 0  500000 1150000 0  550000 1150000 0  600000 1150000 0  650000 1150000 0  700000 1150000 0  750000 1150000 0  800000 1150000 0  850000 1150000 0  900000 1150000 0  950000 1150000 0  1000000 1150000 0  0 1200000 0  50000 1200000 0  100000 1200000 0  150000 1200000 0  200000 1200000 0  250000 1200000 0  300000 1200000 0  350000 1200000 0  400000 1200000 0  450000 1200000 0  500000 1200000 0  550000 1200000 0  600000 1200000 0  650000 1200000 0  700000 1200000 0  750000 1200000 0  800000 1200000 0  850000 1200000 0  900000 1200000 0  950000 1200000 0  1000000 1200000 0  0 1250000 0  50000 1250000 0  100000 1250000 0  150000 1250000 0  200000 1250000 0  250000 1250000 0  300000 1250000 0  350000 1250000 0  400000 1250000 0  450000 1250000 0  500000 1250000 0  550000 1250000 0  600000 1250000 0  650000 1250000 0  700000 1250000 0  750000 1250000 0  800000 1250000 0  850000 1250000 0  900000 1250000 0  950000 1250000 0  1000000 1250000 0  0 1300000 0  50000 1300000 0  100000 1300000 0  150000 1300000 0  200000 1300000 0  250000 1300000 0  300000 1300000 0  350000 1300000 0  400000 1300000 0  450000 1300000 0  500000 1300000 0  550000 1300000 0  600000 1300000 0  650000 1300000 0  700000 1300000 0  750000 1300000 0  800000 1300000 0  850000 1300000 0  900000 1300000 0  950000 1300000 0  1000000 1300000 0  0 1350000 0  50000 1350000 0  100000 1350000 0  150000 1350000 0  200000 1350000 0  250000 1350000 0  300000 1350000 0  350000 1350000 0  400000 1350000 0  450000 1350000 0  500000 1350000 0  550000 1350000 0  600000 1350000 0  650000 1350000 0  700000 135
[...]
<PointData  Scalars="f_21"> 
<DataArray  type="Float64"  Name="f_21"  format="ascii">-8.1248664756686129e+00  -8.1231227472379199e+00  -8.1145201202952784e+00  -8.0990319463841161e+00  -8.0770593372450872e+00  -8.0491866093722564e+00  -8.0161541431619856e+00  -7.9788372446601965e+00  -7.9382226327139698e+00  -7.8953821013036842e+00  -7.8514440164444004e+00  -7.8075634193824488e+00  -7.7648915147718647e+00  -7.7245453312500789e+00  -7.6875783716333395e+00  -7.6549531819772243e+00  -7.6275171942799638e+00  -7.6059845305068681e+00  -7.5909280478065950e+00  -7.5827512326123365e+00  -7.5809873454532104e+00  -8.1265345001022578e+00  -8.1248289994597940e+00  -8.1161024576148986e+00  -8.1005110849471293e+00  -8.0784236931508051e+00  -8.0504136867458858e+00  -8.0172187952738234e+00  -7.9797156998322905e+00  -7.9388945460866092e+00  -7.8958317042883648e+00  -7.8516607994809879e+00  -7.8075425113596344e+00  -7.7646338165524460e+00  -7.7240574072163666e+00  -7.6868720450649262e+00  -7.6540446159082860e+00  -7.6264245490657698e+00  -7.6047204576961587e+00  -7.5894744409951844e+00  -7.5810093145025705e+00  -7.5792453455570667e+00  -8.1346259715837874e+00  -8.1330386220633368e+00  -8.1241106922596327e+00  -8.1080481701841993e+00  -8.0852928400044775e+00  -8.0564473652756785e+00  -8.0222717132377266e+00  -7.9836661480072291e+00  -7.9416475422333592e+00  -7.8973218293862697e+00  -7.8518541692671491e+00  -7.8064377876248390e+00  -7.7622622626227678e+00  -7.7204820068034019e+00  -7.6821857147089272e+00  -7.6483675963214459e+00  -7.6199012953819478e+00  -7.5975174013079840e+00  -7.5817845681149763e+00  -7.5730859009359905e+00  -7.5715050151740808e+00  -8.1490392249961872e+00  -8.1474689082895235e+00  -8.1382053032948090e+00  -8.1213784095424604e+00  -8.0974751253380557e+00  -8.0671536573079266e+00  -8.0312245458725879e+00  -7.9906385764775525e+00  -7.9464657492476114e+00  -7.8998682089756498e+00  -7.8520697561932877e+00  -7.8043235336530454e+00  -7.7578789858937043e+00  -7.7139490104351829e+00  -7.6736782137394988e+00  -7.6381133089394115e+00  -7.6081769427007382e+00  -7.5846463722629158e+00  -7.5681362719448764e+00  -7.5590669080771207e+00  -7.5574843451117655e+00  -8.1695493735672233e+00  -8.1679333900354756e+00  -8.1581415052623143e+00  -8.1402377853541807e+00  -8.1147281868994909e+00  -8.0823275832122992e+00  -8.0439149434633190e+00  -8.0005149129006181e+00  -7.9532759228147132e+00  -7.9034425633002332e+00  -7.8523240195603874e+00  -7.8012602858390041e+00  -7.7515874543910988e+00  -7.7046031608527725e+00  -7.6615332356810661e+00  -7.6235007137876973e+00  -7.5914984661827170e+00  -7.5663661674691252e+00  -7.5487677346747803e+00  -7.5391410270623265e+00  -7.5374693406807811e+00  -8.1960280055636474e+00  -8.1943193320637846e+00  -8.1837989380799527e+00  -8.1644870109822971e+00  -8.1369087527382646e+00  -8.1018374806347531e+00  -8.0602325032440465e+00  -8.0132113832848297e+00  -7.9620238392783822e+00  -7.9080216967976273e+00  -7.8526252703953228e+00  -7.7972874922383850e+00  -7.7434570383050492e+00  -7.6925415668819950e+00  -7.6458721446504363e+00  -7.6046699607452153e+00  -7.5700162968085163e+00  -7.5428255283130952e+00  -7.5238149988413809e+00  -7.5134392360212701e+00  -7.5116308139786465e+00  -8.2284361820691974e+00  -8.2265947920260505e+00  -8.2151474315962218e+00  -8.1940872515011218e+00  -8.1639691203950377e+00  -8.1256331917533693e+00  -8.0801314316668211e+00  -8.0286916777461421e+00  -7.9726860292002808e+00  -7.9135969308268024e+00  -7.8529804405629653e+00  -7.7924275275340742e+00  -7.7335244414899771e+00  -7.6778131610749609e+00  -7.6267529019046760e+00  -7.5816836339635651e+00  -7.5437922693688479e+00  -7.5140806814605483e+00  -7.4933282810510082e+00  -7.4820143847533602e+00  -7.4800333845859157e+00  -8.2668060795672762e+00  -8.2647948888533200e+00  -8.2522237908641269e+00  -8.2290698729451979e+00  -8.1959311549036933e+00  -8.1537275910269980e+00  -8.1036185162831966e+00  -8.0469597750008077e+00  -7.9852663709195060e+00  -7.9201738721553410e+00  -7.8533977485352047e+00  -7.7866911733048294e+00  -7.7218020792736262e+00  -7.6604302736908227e+00  -7.6041854105878901e+00  -7.5545465870720427e+00  -7.5128240184143742e+00  -7.4801216877137842e+00  -7.4572931786224599e+00  -7.4448537140343483e+00  -7.4426677696498462e+00  -8.3112206052129771e+00  -8.3090034794105208e+00  -8.2951112405836227e+00  -8.2695121666426967e+00  -8.2328616068176945e+00  -8.1861749628470353e+00  -8.1307360238673159e+00  -8.0680476059074167e+00  -7.9997883883162970e+00  -7.9277691873000737e+00  -7.8538878363830680e+00  -7.7800830361488513e+00  -7.7082877123614528e+00  -7.6403824149242654e+00  -7.5781493039796608e+00  -7.5232272910440443e+00  -7.4770686730679801e+00  -7.4408960951882648e+00  -7.4156516850705341e+00  -7.4018985190262727e+00  -7.3994762335479365e+00  -8.3617915536483149e+00  -8.3593321972975705e+00  -8.3439184331615674e+00  -8.3155151455382494e+00  -8.2748495377376514e+00  -8.2230499632006193e+00  -8.1615438140350509e+00  -8.0920012934218590e+00  -8.0162861266607486e+00  -7.9364063553364383e+00  -7.8544644692140890e+00  -7.7726071215176633e+00  -7.6929746817554365e+00  -7.6176507980870412e+00  -7.5486121717228105e+00  -7.4876788672570198e+00  -7.4364654106389967e+00  -7.3963315337642737e+00  -7.3683240119990536e+00  -7.3530661920934470e+00  -7.3503762008616089e+00  -8.4186354866410102e+00  -8.4158967338038870e+00  -8.3987562202356241e+00  -8.3671803251197012e+00  -8.3219834317815344e+00  -8.2644261526613132e+00  -8.1961006234832361e+00  -8.1188663384770443e+00  -8.0347940772749631e+00  -7.9461108518051269e+00  -7.8551452014779937e+00  -7.7642729215618900e+00  -7.6758630836094159e+00  -7.5922240053474193e+00  -7.5155488750468464e+00  -7.4478610018258582e+00  -7.3909588215006101e+00  -7.3463595587337638e+00  -7.3152325434765197e+00  -7.2982746504370644e+00  -7.2952851847069144e+00  -8.4818462375207933e+00  -8.4787895483819504e+00  -8.4597108700744599e+00  -8.4245834402658293e+00  -8.3743257594020051e+00  -8.3103522875373894e+00  -8.2344432893924253e+00  -8.1486710088469376e+00  -8.0553357730839910e+00  -7.9569046750250383e+00  -7.8559521786517035e+00  -7.7551024358573768e+00  -7.6569725642716300e+00  -7.5641157704178346e+00  -7.4789632716330932e+00  -7.4037644361333577e+00  -7.3405250420760559e+00  -7.2909425887527686e+00  -7.2563292109333277e+00  -7.2374701425914276e+00  -7.2341488043643007e+00  -8.5514627916740054e+00  -8.5480478591735718e+00  -8.5268124357485178e+00  -8.4877434122635051e+00  -8.4318830650920642e+00  -8.3608245030173922e+00  -8.2765623444931560e+00  -8.1814067634944667e+00  -8.0779103110423769e+00  -7.9687998922994456e+00  -7.8569131662139693e+00  -7.7451386213312086e+00  -7.6363576205617623e+00  -7.5333861259905763e+00  -7.4389139126405768e+00  -7.3554398149320548e+00  -7.2852024827858450e+00  -7.2301055825960976e+00  -7.1916276303733859e+00  -7.1706596777238705e+00  -7.1669733133319280e+00  -8.6274311403824271e+00  -8.6236155396177470e+00  -8.5999968124301240e+00  -8.5565848640294817e+00  -8.4945696695407360e+00  -8.4157524503149777e+00  -8.3223722282869339e+00  -8.2170043043516277e+00  -8.1024758436069195e+00  -7.9817907520735458e+00  -7.8580628748221404e+00  -7.7344558543711637e+00  -7.6141264656735981e+00  -7.5001673842699423e+00  -7.3955454791218482e+00  -7.3030328067070451e+00  -7.2251290347005952e+00  -7.1639741564149189e+00  -7.1212414897959180e+00  -7.0979494810472366e+00  -7.0938640758744134e+00  -8.7095585305115133e+00  -8.7052973388524073e+00  -8.6790597801345601e+00  -8.6308922579923433e+00  -8.5621628661396247e+00  -8.4749172273074649e+00  -8.3716741215675459e+00  -8.2553036222691141e+00  -8.1289289051574301e+00  -7.9958438096869253e+00  -7.8594446456640510e+00  -7.7231730797980163e+00  -7.5904647001702905e+00  -7.4646966621295388e+00  -7.3491279970180141e+00  -7.2468276761002866e+00  -7.1605878802896452e+00  -7.0928210710831960e+00  -7.0454308960150227e+00  -7.0195910610405310e+00  -7.0150715691602326e+00  -8.7974583242769597e+00  -8.7927036098703653e+00  -8.7636010183536097e+00  -8.7102533622227920e+00  -8.6342471027597671e+00  -8.5379185717062089e+00  -8.4241090919741897e+00  -8.2960161570231730e+00  -8.1570782739431227e+00  -8.0108854309049828e+00  -7.8611125581046917e+00  -7.7114704059448842e+00  -7.5656652065014960e+00  -7.4273569377447792e+00  -7.3001062271959754e+00  -7.1873018935476214e+00  -7.0920644419957686e+00  -7.0171233885790478e+00  -6.9646586923509624e+00  -6.9360367056855168e+00  -6.9310466946047873e+00  -8.8904834184777641e+00  -8.8851834339302940e+00  -8.8529556654403283e+00  -8.7939892251282377e+00  -8.7101440821194540e+00  -8.6041082911942741e+00  -8.4790988700328835e+00  -8.3386769611889662e+00  -8.1866119492909402e+00  -8.0267859843063896e+00  -7.8631340116407795e+00  -7.6996099463838590e+00  -7.5401658159138396e+00  -7.3887288895821106e+00  -7.2491620441777247e+00  -7.1251949082137687e+00  -7.0203175886793625e+00  -6.9376331315043025e+00  -6.8796591779404768e+00  -6.8480065365301055e+00  -6.8425074677021609e+00  -8.9876458034615005e+00  -8.9817436134846140e+00  -8.9461104000306833e+00  -8.8810670896077681e+00  -8.7888249655982396e+00  -8.6725063270241698e+00  -8.5357712531509229e+00  -8.3825846633107020e+00  -8.2170558506746421e+00  -8.0433400640964496e+00  -7.8655928010802638e+00  -7.6879616280416494e+00  -7.5145962608181280e+00  -7.3496559037390536e+00  -7.1972930159567188e+00  -7.0615948711747629e+00  -6.9464690286584645e+00  -6.8554650595622029e+00  -6.7915222762568925e+00  -6.7565697041407056e+00  -6.7505195749849776e+00  -9.0875192709556440e+00  -9.0809503533187499e+00  -9.0416000902213600e+00  -8.9699915654139843e+00  -8.8687998826420475e+00  -8.7416952784050981e+00  -8.5928670635987192e+00  -8.4267273144468824e+00  -8.2477232297708092e+00  -8.0602423079915351e+00  -7.8685926242294641e+00  -7.6770343324354364e+00  -7.4898354896931671e+00  -7.3113243956971177e+00  -7.1459105999583254e+00  -6.9980478255925638e+00  -6.8721159295932477e+00  -6.7722063590495942e+00  -6.7017971752412979e+00  -6.6632430331151324e+00  -6.6565939568264074e+00  -9.1881213112885352e+00  -9.1808093284711081e+00  -9.1373794847333869e+00  -9.0586676494522589e+00  -8.9479786849144336e+00  -8.8096888748033280e+00  -8.6486261812257812e+00  -8.4696933430219143e+00  -8.2776549102118722e+00  -8.0770589849077155e+00  -7.8722607969517284e+00  -7.6675118479919711e+00  -7.4670791583829663e+00  -7.2753605022154506e+00  -7.0969610015603450e+00  -6.9366945328861958e+00  -6.7994733391913567e+00  -6.6900549209276559e+00  -6.6126211085125899e+00  -6.5701116697349828e+00  -6.5628057286011963e+00  -9.2867684894866418e+00  -9.2786177767836886e+00  -9.2306616031691444e+00  -9.1442263894749782e+00  -9.0234953523008912e+00  -8.8737702856622267e+00  -8.7006522482753770e+00  -8.5095696756026555e+00  -8.3055529735097231e+00  -8.0931968405774146e+00  -7.8767516430230184e+00  -7.6602912591748700e+00  -7.4479142916179670e+00  -7.2439413855320449e+00  -7.0530700381275402e+00  -6.8804402971651397e+00  -6.7315550777044786e+00  -6.6119959999094648e+00  -6.5268818872779324e+00  -6.4799785463121466e+00  -6.4719408498952156e+00  -9.3798963002646243e+00  -9.3707782763595002e+00  -9.3177091972528032e+00  -9.2227993797834280e+00  -9.0914869234944753e+00  -8.9302984699392294e+00  -8.7457607483101274e+00  -8.5438350167020669e+00  -8.3297153769010457e+00  -8.1078731664404522e+00  -7.8822484992481545e+00  -7.6565179588539412e+00  -7.4343925792319716e+00  -7.2199133284186576e+00  -7.0177087992854501e+00  -6.8331619409177904e+00  -6.6724044905572182e+00  -6.5420323737486550e+00  -6.4484282753628417e+00  -6.3965537517456852e+00  -6.3876809103664147e+00  -9.4628281761543764e+00  -9.4525558531907699e+00  -9.3935554015798530e+00  -9.2892207727989398e+00  -9.1468174168038328e+00  -8.9744875909358193e+00  -8.7798261023850923e+00  -8.5692674895025434e+00  -8.3479875233582543e+00  -8.1200952535159718e+00  -7.8889624607046631e+00  -7.6576056951617328e+00  -7.4290839199873702e+00  -7.2068969721122986e+00  -6.9953665554924500e+00  -6.7999511962159653e+00  -6.6273893544893872e+00  -6.4854923442686969e+00  -6.3823529138921620e+00  -6.3247032709892794e+00  -6.3148441164334663e+00  -9.5294659406515390e+00  -9.5177430813338795e+00  -9.4516093362601818e+00  -9.3366241395383973e+00  -9.1827416588174344e+00  -9.0001814843615211e+00  -8.7976649813758847e+00  -8.5819051771714872e+00  -8.3577602524684362e+00  -8.1286637060453781e+00  -7.8971249068975480e+00  -7.6652214468850408e+00  -7.4350759083477369e+00  -7.2093387237615305e+00  -6.9916956890811228e+00  -6.7873797622925531e+00  -6.6035760495507638e+00  -6.4494556932019558e+00  -6.3353938156569960e+00  -6.2707936307201306e+00  -6.2597161594060253e+00  -9.5718493188624745e+00  -9.5581593866212113e+00  -9.4830617350042683e+00  -9.3558882705560098e+00  -9.1905242392331736e+00  -8.9996838685924381e+00  -8.7930323803442736e+00  -8.5771280734479287e+00  -8.3560620193308282e+00  -8.1322220591158167e+00  -7.9069697720067529e+00  -7.6812042099514928e+00  -7.4558624860491038e+00  -7.2324321655062267e+00  -7.0135504842279230e+00  -6.8037351624541076e+00  -6.6101883349655806e+00  -6.4433630653822096e+00  -6.3165449285639435e+00  -6.2432058334591209e+00  -6.2305378199336783e+00  -9.5794815830890609e+00  -9.5628163091454486e+00  -9.4759269883386512e+00  -9.3348870753237705e+00  -9.1590945435821514e+00  -8.9637870449983374e+00  -8.7588719712092793e+00  -8.5499690883664545e+00  -8.3398118307299569e+00  -8.1293819637490667e+00  -7.9187011435238333e+00  -7.7073779464566465e+00  -7.4950403935260681e+00  -7.2817829291873952e+00  -7.0687624690075754e+00  -6.8590882305006877e+00  -6.6591063645819855e+00  -6.4799065943142429e+00  -6.3380627292453768e+00  -6.2531783890072052e+00  -6.2382922339180649e+00  -9.5382053943469582e+00  -9.5163291218703350e+00  -9.4134277541740801e+00  -9.2575841534584544e+00  -9.0750011516210041e+00  -8.8822990513227804e+00  -8.6880517164959805e+00  -8.4957955253655051e+00  -8.3063046725900840e+00  -8.1189512033309761e+00  -7.9324428318171112e+00  -7.7452214862009505e+00  -7.5557215315543154e+00  -7.3626385752119967e+00  -7.1653687813392928e+00  -6.9648520039341282e+00  -6.7651763396523226e+00  -6.5762911970022468e+00  -6.4172701904185976e+00  -6.3163668233058914e+00  -6.2981299645402009e+00  -9.4280629447214448e+00  -9.3954642263517609e+00  -9.2713430439851301e+00  -9.1034231658900975e+00  -8.9233669574576204e+00  -8.7456170785705503e+00  -8.5748888919894206e+00  -8.4114852002867888e+00  -8.2539610518872966e+00  -8.1002650055232426e+00  -7.9481670350169065e+00  -7.7953854412774053e+00  -7.6396062729041354e+00  -7.4785034693634014e+00  -7.3098737428319636e+00  -7.1321079221907020e+00  -6.9455130134929384e+00  -6.7556132929091870e+00  -6.5799788833225685e+00  -6.4562063350874395e+00  -6.4323537924137018e+00  -9.2179471848788364e+00  -9.1610204586046464e+00  -9.0146508542357537e+00  -8.8488579445530000e+00  -8.6913817500178343e+00  -8.5481098146850165e+00  -8.4176719432811336e+00  -8.2970487986320887e+00  -8.1832292216327716e+00  -8.0735385244203997e+00  -7.9655824930928478e+00  -7.8570971679795907e+00  -7.7457787064760009e+00  -7.6291052055440689e+00  -7.5041596572836760e+00  -7.3675233093778196e+00  -7.2155506021317368e+00  -7.0461910882639067e+00  -6.8663109020165178e+00  -6.7127567431653059e+00  -6.6778947666628685e+00  -8.8451174778608284e+00  -8.7396378977540632e+00  -8.5986602766554832e+00  -8.4763452164680153e+00  -8.3766707979471011e+00  -8.2936218196449580e+00  -8.2217142132529908e+00  -8.1571122308851134e+00  -8.0971655003818856e+00  -8.0399289339883016e+00  -7.9838358598822667e+00  -7.9274748118040934e+00  -7.8694104815895987e+00  -7.8079983044310373e+00  -7.7411370623511679e+00  -7.6658770863901093e+00  -7.5777612087497639e+00  -7.4698780605702044e+00  -7.3330157306358181e+00  -7.1694066849076687e+00  -7.1110493036024396e+00  -8.0000000000000000e+00  -8.0000000000000000e+00  -8.0000000000000000e+00  -8.0000000000000000e+00  -8.0000000000000000e+00  -8.0000000000000000e+00  -8.0000000000000000e+00  -8.0000000000000000e+00  -8.0000000000000000e+00  -8.0000000000000000e+00  -8.0000000000000000e+00  -8.0000000000000000e+00  -8.0000000000000000e+00  -8.0000000000000000e+00  -8.0000000000000000e+00  -8.0000000000000000e+00  -8.0000000000000000e+00  -8.0000000000000000e+00  -8.0000000000000000e+00  -8.0000000000000000e+00  -8.0000000000000000e+00  </DataArray> 
</PointData> 
</Piece>
</UnstructuredGrid>
</VTKFile>