<?xml version="1.0"?>
<VTKFile type="UnstructuredGrid"  version="0.1"  >
<UnstructuredGrid>
<Piece  NumberOfPoints="651" NumberOfCells="1200">
<Points>
<DataArray  type="Float64"  NumberOfComponents="3"  format="ascii">0 0 0  50000 0 0  100000 0 0  150000 0 0  200000 0 0  250000 0 0  300000 0 0  350000 0 0  400000 0 0  450000 0 0  500000 0 0  550000 0 0  600000 0 0  650000 0 0  700000 0 0  750000 0 0  800000 0 0  850000 0 0  900000 0 0  950000 0 0  1000000 0 0  0 50000 0  50000 50000 0  100000 50000 0  150000 50000 0  200000 50000 0  250000 50000 0  300000 50000 0  350000 50000 0  400000 50000 0  450000 50000 0  500000 50000 0  550000 50000 0  600000 50000 0  650000 50000 0  700000 50000 0  750000 50000 0  800000 50000 0  850000 50000 0  900000 50000 0  950000 50000 0  1000000 50000 0  0 100000 0  50000 100000 0  100000 100000 0  150000 100000 0  200000 100000 0  250000 100000 0  300000 100000 0  350000 100000 0  400000 100000 0  450000 100000 0  500000 100000 0  550000 100000 0  600000 100000 0  650000 100000 0  700000 100000 0  750000 100000 0  800000 100000 0  850000 100000 0  900000 100000 0  950000 100000 0  1000000 100000 0  0 150000 0  50000 150000 0  100000 150000 0  150000 150000 0  200000 150000 0  250000 150000 0  300000 150000 0  350000 150000 0  400000 150000 0  450000 150000 0  500000 150000 0  550000 150000 0  600000 150000 0  650000 150000 0  700000 150000 0  750000 150000 0  800000 150000 0  850000 150000 0  900000 150000 0  950000 150000 0  1000000 150000 0  0 200000 0  50000 200000 0  100000 200000 0  150000 200000 0  200000 200000 0  250000 200000 0  300000 200000 0  350000 200000 0  400000 200000 0  450000 200000 0  500000 200000 0  550000 200000 0  600000 200000 0  650000 200000 0  700000 200000 0  750000 200000 0  800000 200000 0  850000 200000 0  900000 200000 0  950000 200000 0  1000000 200000 0  0 250000 0  50000 250000 0  100000 250000 0  150000 250000 0  200000 250000 0  250000 250000 0  300000 250000 0  350000 250000 0  400000 250000 0  450000 250000 0  500000 250000 0  550000 250000 0  600000 250000 0  650000 250000 0  700000 250000 0  750000 250000 0  800000 250000 0  850000 250000 0  900000 250000 0  950000 250000 0  1000000 250000 0  0 300000 0  50000 300000 0  100000 300000 0  150000 300000 0  200000 300000 0  250000 300000 0  300000 300000 0  350000 300000 0  400000 300000 0  450000 300000 0  500000 300000 0  550000 300000 0  600000 300000 0  650000 300000 0  700000 300000 0  750000 300000 0  800000 300000 0  850000 300000 0  900000 300000 0  950000 300000 0  1000000 300000 0  0 350000 0  50000 350000 0  100000 350000 0  150000 350000 0  200000 350000 0  250000 350000 0  300000 350000 0  350000 350000 0  400000 350000 0  450000 350000 0  500000 350000 0  550000 350000 0  600000 350000 0  650000 350000 0  700000 350000 0  750000 350000 0  800000 350000 0  850000 350000 0  900000 350000 0  950000 350000 0  1000000 350000 0  0 400000 0  50000 400000 0  100000 400000 0  150000 400000 0  200000 400000 0  250000 400000 0  300000 400000 0  350000 400000 0  400000 400000 0  450000 400000 0  500000 400000 0  550000 400000 0  600000 400000 0  650000 400000 0  700000 400000 0  750000 400000 0  800000 400000 0  850000 400000 0  900000 400000 0  950000 400000 0  1000000 400000 0  0 450000 0  50000 450000 0  100000 450000 0  150000 450000 0  200000 450000 0  250000 450000 0  300000 450000 0  350000 450000 0  400000 450000 0  450000 450000 0  500000 450000 0  550000 450000 0  600000 450000 0  650000 450000 0  700000 450000 0  750000 450000 0  800000 450000 0  850000 450000 0  900000 450000 0  950000 450000 0  1000000 450000 0  0 500000 0  50000 500000 0  100000 500000 0  150000 500000 0  200000 500000 0  250000 500000 0  300000 500000 0  350000 500000 0  400000 500000 0  450000 500000 0  500000 500000 0  550000 500000 0  600000 500000 0  650000 500000 0  700000 500000 0  750000 500000 0  800000 500000 0  850000 500000 0  900000 500000 0  950000 500000 0  1000000 500000 0  0 550000 0  50000 550000 0  100000 550000 0  150000 550000 0  200000 550000 0  250000 550000 0  300000 550000 0  350000 550000 0  400000 550000 0  450000 550000 0  500000 550000 0  550000 550000 0  600000 550000 0  650000 550000 0  700000 550000 0  750000 550000 0  800000 550000 0  850000 550000 0  900000 550000 0  950000 550000 0  1000000 550000 0  0 600000 0  50000 600000 0  100000 600000 0  150000 600000 0  200000 600000 0  250000 600000 0  300000 600000 0  350000 600000 0  400000 600000 0  450000 600000 0  500000 600000 0  550000 600000 0  600000 600000 0  650000 600000 0  700000 600000 0  750000 600000 0  800000 600000 0  850000 600000 0  900000 600000 0  950000 600000 0  1000000 600000 0  0 650000 0  50000 650000 0  100000 650000 0  150000 650000 0  200000 650000 0  250000 650000 0  300000 650000 0  350000 650000 0  400000 650000 0  450000 650000 0  500000 650000 0  550000 650000 0  600000 650000 0  650000 650000 0  700000 650000 0  750000 650000 0  800000 650000 0  850000 650000 0  900000 650000 0  950000 650000 0  1000000 650000 0  0 700000 0  50000 700000 0  100000 700000 0  150000 700000 0  200000 700000 0  250000 700000 0  300000 700000 0  350000 700000 0  400000 700000 0  450000 700000 0  500000 700000 0  550000 700000 0  600000 700000 0  650000 700000 0  700000 700000 0  750000 700000 0  800000 700000 0  850000 700000 0  900000 700000 0  950000 700000 0  1000000 700000 0  0 750000 0  50000 750000 0  100000 750000 0  150000 750000 0  200000 750000 0  250000 750000 0  300000 750000 0  350000 750000 0  400000 750000 0  450000 750000 0  500000 750000 0  550000 750000 0  600000 750000 0  650000 750000 0  700000 750000 0  750000 750000 0  800000 750000 0  850000 750000 0  900000 750000 0  950000 750000 0  1000000 750000 0  0 800000 0  50000 800000 0  100000 800000 0  150000 800000 0  200000 800000 0  250000 800000 0  300000 800000 0  350000 800000 0  400000 800000 0  450000 800000 0  500000 800000 0  550000 800000 0  600000 800000 0  650000 800000 0  700000 800000 0  750000 800000 0  800000 800000 0  850000 800000 0  900000 800000 0  950000 800000 0  1000000 800000 0  0 850000 0  50000 850000 0  100000 850000 0  150000 850000 0  200000 850000 0  250000 850000 0  300000 850000 0  350000 850000 0  400000 850000 0  450000 850000 0  500000 850000 0  550000 850000 0  600000 850000 0  650000 850000 0  700000 850000 0  750000 850000 0  800000 850000 0  850000 850000 0  900000 850000 0  950000 850000 0  1000000 850000 0  0 900000 0  50000 900000 0  100000 900000 0  150000 900000 0  200000 900000 0  250000 900000 0  300000 900000 0  350000 900000 0  400000 900000 0  450000 900000 0  500000 900000 0  550000 900000 0  600000 900000 0  650000 900000 0  700000 900000 0  750000 900000 0  800000 900000 0  850000 900000 0  900000 900000 0  950000 900000 0  1000000 900000 0  0 950000 0  50000 950000 0  100000 950000 0  150000 950000 0  200000 950000 0  250000 950000 0  300000 950000 0  350000 950000 0  400000 950000 0  450000 950000 0  500000 950000 0  550000 950000 0  600000 950000 0  650000 950000 0  700000 950000 0  750000 950000 0  800000 950000 0  850000 950000 0  900000 950000 0  950000 950000 0  1000000 950000 0  0 1000000 0  50000 1000000 0  100000 1000000 0  150000 1000000 0  200000 1000000 0  250000 1000000 0  300000 1000000 0  350000 1000000 0  400000 1000000 0  450000 1000000 0  500000 1000000 0  550000 1000000 0  600000 1000000 0  650000 1000000 0  700000 1000000 0  750000 1000000 0  800000 1000000 0  850000 1000000 0  900000 1000000 0  950000 1000000 0  1000000 1000000 0  0 1050000 0  50000 1050000 0  100000 1050000 0  150000 1050000 0  200000 1050000 0  250000 1050000 0  300000 1050000 0  350000 1050000 0  400000 1050000 0  450000 1050000 0  500000 1050000 0  550000 1050000 0  600000 1050000 0  650000 1050000 0  700000 1050000 0  750000 1050000 0  800000 1050000 0  850000 1050000 0  900000 1050000 0  950000 1050000 0  1000000 1050000 0  0 1100000 0  50000 1100000 0  100000 1100000 0  150000 1100000 0  200000 1100000 0  250000 1100000 0  300000 1100000 0  350000 1100000 0  400000 1100000 0  450000 1100000 0  500000 1100000 0  550000 1100000 0  600000 1100000 0  650000 1100000 0  700000 1100000 0  750000 1100000 0  800000 1100000 0  850000 1100000 0  900000 1100000 0  950000 1100000 0  1000000 1100000 0  0 1150000 0  50000 1150000 0  100000 1150000 0  150000 1150000 0  200000 1150000 0  250000 1150000 0  300000 1150000 0  350000 1150000 0  400000 1150000 0  450000 1150000 0  500000 1150000 0  550000 1150000 0  600000 1150000 0  650000 1150000 0  700000 1150000 0  750000 1150000 0  800000 1150000 0  850000 1150000 0  900000 1150000 0  950000 1150000 0  1000000 1150000 0  0 1200000 0  50000 1200000 0  100000 1200000 0  150000 1200000 0  200000 1200000 0  250000 1200000 0  300000 1200000 0  350000 1200000 0  400000 1200000 0  450000 1200000 0  500000 1200000 0  550000 1200000 0  600000 1200000 0  650000 1200000 0  700000 1200000 0  750000 1200000 0  800000 1200000 0  850000 1200000 0  900000 1200000 0  950000 1200000 0  1000000 1200000 0  0 1250000 0  50000 1250000 0  100000 1250000 0  150000 1250000 0  200000 1250000 0  250000 1250000 0  300000 1250000 0  350000 1250000 0  400000 1250000 0  450000 1250000 0  500000 1250000 0  550000 1250000 0  600000 1250000 0  650000 1250000 0  700000 1250000 0  750000 1250000 0  800000 1250000 0  850000 1250000 0  900000 1250000 0  950000 1250000 0  1000000 1250000 0  0 1300000 0  50000 1300000 0  100000 1300000 0  150000 1300000 0  200000 1300000 0  250000 1300000 0  300000 1300000 0  350000 1300000 0  400000 1300000 0  450000 1300000 0  500000 1300000 0  550000 1300000 0  600000 1300000 0  650000 1300000 0  700000 1300000 0  750000 1300000 0  800000 1300000 0  850000 1300000 0  900000 1300000 0  950000 1300000 0  1000000 1300000 0  0 1350000 0  50000 1350000 0  100000 1350000 0  150000 1350000 0  200000 1350000 0  250000 1350000 0  300000 1350000 0  350000 1350000 0  400000 1350000 0  450000 1350000 0  500000 1350000 0  550000 1350000 0  600000 1350000 0  650000 1350000 0  700000 135
[...]
<PointData  Scalars="f_21"> 
<DataArray  type="Float64"  Name="f_21"  format="ascii">-8.1338662733410967e+00  -8.1319977456615309e+00  -8.1227720037404563e+00  -8.1061606404437772e+00  -8.0825943096154997e+00  -8.0527000303270864e+00  -8.0172720776937307e+00  -7.9772493265607185e+00  -7.9336900510776944e+00  -7.8877436971016408e+00  -7.8406203347001462e+00  -7.7935586179072249e+00  -7.7477930859862782e+00  -7.7045216496731568e+00  -7.6648741378844756e+00  -7.6298829008885587e+00  -7.6004569235895252e+00  -7.5773623362463303e+00  -7.5612139262012814e+00  -7.5524450167998385e+00  -7.5505543601427734e+00  -8.1356523532026781e+00  -8.1338248657475347e+00  -8.1244661115513939e+00  -8.1077441365170664e+00  -8.0840548720071261e+00  -8.0540136010244652e+00  -8.0184117371479786e+00  -7.9781896175750475e+00  -7.9344091815362487e+00  -7.8882247733363311e+00  -7.8408520937449842e+00  -7.7935358342990853e+00  -7.7475167149138144e+00  -7.7039987107482366e+00  -7.6641172814151570e+00  -7.6289094222600244e+00  -7.5992862496577196e+00  -7.5760079644103389e+00  -7.5596562950120072e+00  -7.5505778490707955e+00  -7.5486871976112901e+00  -8.1443287467941179e+00  -8.1426283718737746e+00  -8.1330538347422205e+00  -8.1158265756561523e+00  -8.0914209355983342e+00  -8.0604836157003241e+00  -8.0238298893069935e+00  -7.9824253876339579e+00  -7.9373607135792570e+00  -7.8898219162941698e+00  -7.8410585154670827e+00  -7.7923501058998221e+00  -7.7449723702390543e+00  -7.7001633016513402e+00  -7.6590904613823669e+00  -7.6228201500848760e+00  -7.5922894569214892e+00  -7.5682821611082138e+00  -7.5514084979010221e+00  -7.5420798183906763e+00  -7.5403861242863304e+00  -8.1597859322667627e+00  -8.1581041739470006e+00  -8.1481700315340824e+00  -8.1301231652298185e+00  -8.1044863497417197e+00  -8.0719659329895652e+00  -8.0334314739512305e+00  -7.9899028140405033e+00  -7.9425275507961484e+00  -7.8925520298077156e+00  -7.8412886697560555e+00  -7.7900813318285120e+00  -7.7402699105748294e+00  -7.6931551305623778e+00  -7.6499645273565688e+00  -7.6118207245533132e+00  -7.5797133876701688e+00  -7.5544763787207065e+00  -7.5367693302712295e+00  -7.5270434588549273e+00  -7.5253482945464025e+00  -8.1817819098054745e+00  -8.1800515302954491e+00  -8.1695512475979299e+00  -8.1503497721307330e+00  -8.1229902787504660e+00  -8.0882399357143733e+00  -8.0470417437285828e+00  -8.0004947977565912e+00  -7.9498308394797075e+00  -7.8963846552918868e+00  -7.8415602518702983e+00  -7.7867946488403872e+00  -7.7335206800994891e+00  -7.6831299630344319e+00  -7.6369371607429333e+00  -7.5961467723946656e+00  -7.5618238065501560e+00  -7.5348690997643368e+00  -7.5159951177011326e+00  -7.5056718997729783e+00  -7.5038814245168606e+00  -8.2101782120862605e+00  -8.2083488148472590e+00  -8.1970676587464286e+00  -8.1763562303196800e+00  -8.1467782939288522e+00  -8.1091637158190188e+00  -8.0645416999343968e+00  -8.0141110325719325e+00  -7.9592121145450561e+00  -7.9012947623550582e+00  -7.8418821827404628e+00  -7.7825325315375515e+00  -7.7247993980642837e+00  -7.6701924099524561e+00  -7.6201391108710297e+00  -7.5759492903257479e+00  -7.5387828018223919e+00  -7.5096206219231805e+00  -7.4892325206243351e+00  -7.4781063595122959e+00  -7.4761695364715335e+00  -8.2449323968759440e+00  -8.2429611070666802e+00  -8.2306862636988178e+00  -8.2081002483523786e+00  -8.1757986084915206e+00  -8.1346829003060837e+00  -8.0858817296143730e+00  -8.0307121811342643e+00  -7.9706459317190825e+00  -7.9072729022038288e+00  -7.8422618930355030e+00  -7.7773191097360801e+00  -7.7141456933948440e+00  -7.6543953356199754e+00  -7.5996330288555738e+00  -7.5512959688210435e+00  -7.5106573149560258e+00  -7.4787919004309167e+00  -7.4565360620210051e+00  -7.4444042056414492e+00  -7.4422826449427344e+00  -8.2860783407224456e+00  -8.2839254503738076e+00  -8.2704459425149341e+00  -8.2456148991560934e+00  -8.2100741359598342e+00  -8.1648108065096299e+00  -8.1110686890676664e+00  -8.0503021740704916e+00  -7.9841362160753491e+00  -7.9143249659102324e+00  -7.8427081921600355e+00  -7.7711660591131970e+00  -7.7015731065632007e+00  -7.6357522924858960e+00  -7.5754299535861360e+00  -7.5221925036110360e+00  -7.4774453533654626e+00  -7.4423728584401605e+00  -7.4178909082144004e+00  -7.4045523943547789e+00  -7.4022114435151192e+00  -8.3337043593341900e+00  -8.3313311864510116e+00  -8.3164353871954724e+00  -8.2889825467873415e+00  -8.2496759765389953e+00  -8.1996052156682868e+00  -8.1401475351955028e+00  -8.0729149616429101e+00  -7.9997079919870524e+00  -7.9224687223917121e+00  -7.8432324913221585e+00  -7.7640784216498062e+00  -7.6870794374354681e+00  -7.6142523244144105e+00  -7.5475084180452150e+00  -7.4886055256253616e+00  -7.4391014405128431e+00  -7.4003077894428770e+00  -7.3732354326796896e+00  -7.3584885776323663e+00  -7.3558946292129743e+00  -8.3879297692280819e+00  -8.3852974642707796e+00  -8.3687705754196511e+00  -8.3383110140304737e+00  -8.2946991820565437e+00  -8.2391457851717931e+00  -8.1731821218742056e+00  -8.0985997410064563e+00  -8.0173975881141004e+00  -7.9317292594584563e+00  -7.8438495550536667e+00  -7.7560605899335604e+00  -7.6706577334367507e+00  -7.5898755586423352e+00  -7.5158340168171787e+00  -7.4504851814529198e+00  -7.3955608272331510e+00  -7.3525196092718454e+00  -7.3224846348474326e+00  -7.3061247575878792e+00  -7.3032442434489830e+00  -8.4488790130415676e+00  -8.4459477963960286e+00  -8.4275698529462542e+00  -8.3937086723155794e+00  -8.3452381973836793e+00  -8.2835110131593854e+00  -8.2102351160266416e+00  -8.1274050591146967e+00  -8.0372418257453866e+00  -7.9421338160096226e+00  -7.8445782165509552e+00  -7.7471228402252645e+00  -7.6523082813333616e+00  -7.5626100165465253e+00  -7.4803801327390946e+00  -7.4077886482046287e+00  -7.3467645614798860e+00  -7.2989354372782591e+00  -7.2655558381502745e+00  -7.2473734920946660e+00  -7.2441724153340159e+00  -8.5166521710552576e+00  -8.5133807917554005e+00  -8.4929252105848345e+00  -8.4552562536134612e+00  -8.4013595791636071e+00  -8.3327528084952274e+00  -8.2513457119537748e+00  -8.1593609948598669e+00  -8.0592657860001982e+00  -7.9537059110921655e+00  -7.8454422382037947e+00  -7.7372888639475699e+00  -7.6320523325376612e+00  -7.5324706887740156e+00  -7.4411512401480824e+00  -7.3605064024738303e+00  -7.2926875177777495e+00  -7.2395154878823469e+00  -7.2023980495398972e+00  -7.1821777175513999e+00  -7.1786214111409850e+00  -8.5912905200717393e+00  -8.5876358327870683e+00  -8.5648683669869410e+00  -8.5229735754895746e+00  -8.4630699220378514e+00  -8.3868666632097018e+00  -8.2965034619071254e+00  -8.1944581680278983e+00  -8.0834683580423050e+00  -7.9664584241867997e+00  -7.8464714161565308e+00  -7.7266048301490846e+00  -7.6099485114452188e+00  -7.4995222134734476e+00  -7.3982104613037158e+00  -7.3086931550019898e+00  -7.2333713468176590e+00  -7.1742870369115721e+00  -7.1330264194660842e+00  -7.1105455225134477e+00  -7.1065985139756469e+00  -8.6727356359580323e+00  -8.6686522242507795e+00  -8.6433300904731851e+00  -8.5967793543160873e+00  -8.5302769443811552e+00  -8.4457553485909891e+00  -8.3456163398860337e+00  -8.2326220648907729e+00  -8.1098045411427560e+00  -7.9803851400295525e+00  -7.8477030029466297e+00  -7.7151506042800015e+00  -7.5861130441375284e+00  -7.4639067325266124e+00  -7.3517132714965632e+00  -7.2525055047247742e+00  -7.1689643655332906e+00  -7.1033852874820971e+00  -7.0575633974051541e+00  -7.0325913764759482e+00  -7.0282172753229872e+00  -8.7607803490475700e+00  -8.7562201178947987e+00  -8.7280909339392370e+00  -8.6764420425833535e+00  -8.6027414605646246e+00  -8.5091838184006150e+00  -8.3984709018244672e+00  -8.2736809292004381e+00  -8.1381632846363186e+00  -7.9954501658140993e+00  -7.8491835169205793e+00  -7.7030538467895449e+00  -7.5607451365380953e+00  -7.4258787610262313e+00  -7.3019495393949745e+00  -7.1922486494280502e+00  -7.0997706663545266e+00  -7.0271032039079060e+00  -6.9762884149026618e+00  -6.9485855133507375e+00  -6.9437468288592186e+00  -8.8550096386144581e+00  -8.8499212668518528e+00  -8.8187212249912346e+00  -8.7615192312251562e+00  -8.6800175503134707e+00  -8.5767226061407431e+00  -8.4546820634454392e+00  -8.3173252031235148e+00  -8.1683394728373777e+00  -8.0115745392584099e+00  -7.8509710051226120e+00  -7.6905078055798448e+00  -7.5341590227237232e+00  -7.3858492000578861e+00  -7.2493964717613775e+00  -7.1284349243129173e+00  -7.0263111616243661e+00  -6.9459527777114420e+00  -6.8896982518784622e+00  -6.8590134171231787e+00  -6.8536711780735864e+00  -8.9547292690530593e+00  -8.9490573472273152e+00  -8.9145077103892785e+00  -8.8512825951154017e+00  -8.7613776383915347e+00  -8.6476764735554053e+00  -8.5136296227327719e+00  -8.3630562564000055e+00  -8.1999985327045533e+00  -8.0286192892099297e+00  -7.8531378154965390e+00  -7.6777936604727000e+00  -7.5068243436776694e+00  -7.3444409055647837e+00  -7.1947854785355894e+00  -7.0618575192920403e+00  -6.9493999073682460e+00  -6.8607407632212070e+00  -6.7985806911635844e+00  -6.7646476909860356e+00  -6.7587606752673004e+00  -9.0588795750711935e+00  -9.0525631385125944e+00  -9.0143636157687830e+00  -8.9446245568638609e+00  -8.8457183958923657e+00  -8.7209944484543946e+00  -8.5743783092643149e+00  -8.4101220412383384e+00  -8.2326321711138757e+00  -8.0463642432631453e+00  -7.8557738987091730e+00  -7.6653081910377763e+00  -7.4794164780948744e+00  -7.3025583705751336e+00  -7.1391864013958752e+00  -6.9936834339761091e+00  -6.8702399172438824e+00  -6.7726627558544470e+00  -6.7041047272555261e+00  -6.6666350785100272e+00  -6.6601583588515449e+00  -9.1659311913777533e+00  -9.1589011553628801e+00  -9.1167178833943687e+00  -9.0399416522380793e+00  -8.9314423214416632e+00  -8.7951567803670070e+00  -8.6355780666390363e+00  -8.4574376203532839e+00  -8.2655041611010454e+00  -8.0644821160773894e+00  -7.8589905744133572e+00  -7.6535971604230157e+00  -7.4528779790982700e+00  -7.2614738204592140e+00  -7.0841127657870668e+00  -6.9255705113386270e+00  -6.7905438687962478e+00  -6.6834207532968826e+00  -6.6079316400108432e+00  -6.5666021819362257e+00  -6.5594845339932455e+00  -9.2737584844907381e+00  -9.2659331220321040e+00  -9.2193776666355571e+00  -9.1349877276267559e+00  -9.0163085073975395e+00  -8.8680339786265634e+00  -8.6953419125139764e+00  -8.5034897391140785e+00  -8.2975863012085291e+00  -8.0825080660998552e+00  -7.8629245202616813e+00  -7.6433938546377558e+00  -7.4284909160264316e+00  -7.2229308515182566e+00  -7.0316513207658105e+00  -6.8598140899195714e+00  -6.7126867480291343e+00  -6.5953713543532633e+00  -6.5123530093177591e+00  -6.4667847568895578e+00  -6.4589642183160274e+00  -9.3794845678013044e+00  -9.3707614725529407e+00  -9.3193551407598907e+00  -9.2266871054363424e+00  -9.0972444549126266e+00  -8.9367135300555933e+00  -8.7511009479503326e+00  -8.5462276500965633e+00  -8.3274873563579010e+00  -8.0998063162009863e+00  -7.8677414119407034e+00  -7.6356602304699397e+00  -7.4079568966356542e+00  -7.1892637263627179e+00  -6.9846173043291007e+00  -6.7995290211992065e+00  -6.6398997259894950e+00  -6.5117150912060868e+00  -6.4204648981598789e+00  -6.3701878860815135e+00  -6.3615843222297137e+00  -9.4792882556104594e+00  -9.4695297972809023e+00  -9.4126440253257098e+00  -9.3108929163951970e+00  -9.1701091587946895e+00  -8.9972923747358688e+00  -8.7994415613793215e+00  -8.5829487619136007e+00  -8.3533830064658545e+00  -8.1155380888655806e+00  -7.8736380767803906e+00  -7.6316244372642847e+00  -7.3934756164894155e+00  -7.1635239383621485e+00  -6.9467319911995524e+00  -6.7488715020172974e+00  -6.5765174738195071e+00  -6.4367431007070124e+00  -6.3363933082844213e+00  -6.2807889169862481e+00  -6.2712916769015772e+00  -9.5681565321393620e+00  -9.5571625670956539e+00  -9.4939202244260095e+00  -9.3820677556211809e+00  -9.2293972500546886e+00  -9.0446405355763666e+00  -8.8359416031445726e+00  -8.6101997005695967e+00  -8.3729639776305884e+00  -8.1286396041437481e+00  -7.8808411478797407e+00  -7.6328022852297295e+00  -7.3878022197552511e+00  -7.1495929779329686e+00  -6.9228079961021960e+00  -6.7132999309745376e+00  -6.5282942369909973e+00  -6.3761672263935170e+00  -6.2655973897882822e+00  -6.2038040228283657e+00  -6.1932512929874992e+00  -9.6395528405849795e+00  -9.6270062662516960e+00  -9.5561191740119202e+00  -9.4328516568944529e+00  -9.2678787623625016e+00  -9.0721594852296406e+00  -8.8550454160028380e+00  -8.6237341013990036e+00  -8.3834339461652121e+00  -8.1378256545471519e+00  -7.8895990417451642e+00  -7.6409809931426933e+00  -7.3942466892833449e+00  -7.1522373698028003e+00  -6.9189045651795720e+00  -6.6998589757159666e+00  -6.5028048688075017e+00  -6.3375765506246378e+00  -6.2152997322481065e+00  -6.1460575467652223e+00  -6.1342009506118513e+00  -9.6849450480929775e+00  -9.6702928551900822e+00  -9.5897988761475972e+00  -9.4534681959135636e+00  -9.2761908606111181e+00  -9.0716003261278466e+00  -8.8500597869658897e+00  -8.6186005739248195e+00  -8.3816084186604964e+00  -8.1416428117782598e+00  -7.9001629252424763e+00  -7.6581320631902052e+00  -7.4165543881183176e+00  -7.1770243156086702e+00  -6.9423690532085569e+00  -6.7174323193088092e+00  -6.5099365508501847e+00  -6.3310905467451226e+00  -6.1951407457789607e+00  -6.1165327800787663e+00  -6.1029737796658088e+00  -9.6930827918696281e+00  -9.6752452463252911e+00  -9.5821132698973219e+00  -9.4309206993440409e+00  -9.2424683503876661e+00  -9.0330948288592605e+00  -8.8134225288339874e+00  -8.5894762296393949e+00  -8.3641859409896089e+00  -8.1386036268342501e+00  -7.9127519300573290e+00  -7.6862106626002529e+00  -7.4585805130226710e+00  -7.2299622691307412e+00  -7.0015959228761302e+00  -6.7768148801839496e+00  -6.5624236579518591e+00  -6.3703137351754719e+00  -6.2182575547963550e+00  -6.1272754617034506e+00  -6.1113420275225874e+00  -9.6487928527328215e+00  -9.6253750531900391e+00  -9.5150810239385208e+00  -9.3480221478842136e+00  -9.1522952651965657e+00  -8.9457208980304852e+00  -8.7374912888136471e+00  -8.5313973469944049e+00  -8.3282685135292009e+00  -8.1274310352661274e+00  -7.9274990065098141e+00  -7.7268016154930059e+00  -7.5236599382719227e+00  -7.3166750923396568e+00  -7.1051992454378059e+00  -6.8902396985914258e+00  -6.6761796253543135e+00  -6.4736877998621187e+00  -6.3032177033473138e+00  -6.1950652246728168e+00  -6.1755444646370243e+00  -9.5306864281967201e+00  -9.4957822536723473e+00  -9.3627436171072418e+00  -9.1827425476368827e+00  -8.9897294157498226e+00  -8.7991896735504280e+00  -8.6161785625635119e+00  -8.4410202197161741e+00  -8.2721650625374838e+00  -8.1074134329331180e+00  -7.9443743185726969e+00  -7.7806013457128325e+00  -7.6136135269090301e+00  -7.4409167881534213e+00  -7.2601485265160219e+00  -7.0695829673096613e+00  -6.8695488578156372e+00  -6.6659697750049745e+00  -6.4776878495960073e+00  -6.3450198666888431e+00  -6.3194856216223370e+00  -9.3054288884964489e+00  -9.2444540933151487e+00  -9.0875682926308077e+00  -8.9098505739961045e+00  -8.7410471185494067e+00  -8.5874716202328045e+00  -8.4476550643134143e+00  -8.3183601233824600e+00  -8.1963583752735065e+00  -8.0787822848709929e+00  -7.9630650997936705e+00  -7.8467797287189658e+00  -7.7274562738075305e+00  -7.6023909387630404e+00  -7.4684561346328753e+00  -7.3219860584350949e+00  -7.1590714603993586e+00  -6.9775135033676721e+00  -6.7846760416562724e+00  -6.6200769196166203e+00  -6.5827490699322135e+00  -8.9057951685554997e+00  -8.7927714767384160e+00  -8.6416648921360650e+00  -8.5105545675537435e+00  -8.4037140856790096e+00  -8.3146964616503549e+00  -8.2376223235055726e+00  -8.1683793639301197e+00  -8.1041262537425673e+00  -8.0427778807990418e+00  -7.9826548549999528e+00  -7.9222441719074981e+00  -7.8600072363008735e+00  -7.7941810558823015e+00  -7.7225129628250988e+00  -7.6418404763522396e+00  -7.5473845816356953e+00  -7.4317346921280656e+00  -7.2850143943856249e+00  -7.1096228132644130e+00  -7.0471102016525498e+00  -8.0000000000000000e+00  -8.0000000000000000e+00  -8.0000000000000000e+00  -8.0000000000000000e+00  -8.0000000000000000e+00  -8.0000000000000000e+00  -8.0000000000000000e+00  -8.0000000000000000e+00  -8.0000000000000000e+00  -8.0000000000000000e+00  -8.0000000000000000e+00  -8.0000000000000000e+00  -8.0000000000000000e+00  -8.0000000000000000e+00  -8.0000000000000000e+00  -8.0000000000000000e+00  -8.0000000000000000e+00  -8.0000000000000000e+00  -8.0000000000000000e+00  -8.0000000000000000e+00  -8.0000000000000000e+00  </DataArray> 
</PointData> 
</Piece>
</UnstructuredGrid>
</VTKFile>