<?xml version="1.0"?>
<VTKFile type="UnstructuredGrid"  version="0.1"  >
<UnstructuredGrid>
<Piece  NumberOfPoints="651" NumberOfCells="1200">
<Points>
<DataArray  type="Float64"  NumberOfComponents="3"  format="ascii">0 0 0  50000 0 0  100000 0 0  150000 0 0  200000 0 0  250000 0 0  300000 0 0  350000 0 0  400000 0 0  450000 0 0  500000 0 0  550000 0 0  600000 0 0  650000 0 0  700000 0 0  750000 0 0  800000 0 0  850000 0 0  900000 0 0  950000 0 0  1000000 0 0  0 50000 0  50000 50000 0  100000 50000 0  150000 50000 0  200000 50000 0  250000 50000 0  300000 50000 0  350000 50000 0  400000 50000 0  450000 50000 0  500000 50000 0  550000 50000 0  600000 50000 0  650000 50000 0  700000 50000 0  750000 50000 0  800000 50000 0  850000 50000 0  900000 50000 0  950000 50000 0  1000000 50000 0  0 100000 0  50000 100000 0  100000 100000 0  150000 100000 0  200000 100000 0  250000 100000 0  300000 100000 0  350000 100000 0  400000 100000 0  450000 100000 0  500000 100000 0  550000 100000 0  600000 100000 0  650000 100000 0  700000 100000 0  750000 100000 0  800000 100000 0  850000 100000 0  900000 100000 0  950000 100000 0  1000000 100000 0  0 150000 0  50000 150000 0  100000 150000 0  150000 150000 0  200000 150000 0  250000 150000 0  300000 150000 0  350000 150000 0  400000 150000 0  450000 150000 0  500000 150000 0  550000 150000 0  600000 150000 0  650000 150000 0  700000 150000 0  750000 150000 0  800000 150000 0  850000 150000 0  900000 150000 0  950000 150000 0  1000000 150000 0  0 200000 0  50000 200000 0  100000 200000 0  150000 200000 0  200000 200000 0  250000 200000 0  300000 200000 0  350000 200000 0  400000 200000 0  450000 200000 0  500000 200000 0  550000 200000 0  600000 200000 0  650000 200000 0  700000 200000 0  750000 200000 0  800000 200000 0  850000 200000 0  900000 200000 0  950000 200000 0  1000000 200000 0  0 250000 0  50000 250000 0  100000 250000 0  150000 250000 0  200000 250000 0  250000 250000 0  300000 250000 0  350000 250000 0  400000 250000 0  450000 250000 0  500000 250000 0  550000 250000 0  600000 250000 0  650000 250000 0  700000 250000 0  750000 250000 0  800000 250000 0  850000 250000 0  900000 250000 0  950000 250000 0  1000000 250000 0  0 300000 0  50000 300000 0  100000 300000 0  150000 300000 0  200000 300000 0  250000 300000 0  300000 300000 0  350000 300000 0  400000 300000 0  450000 300000 0  500000 300000 0  550000 300000 0  600000 300000 0  650000 300000 0  700000 300000 0  750000 300000 0  800000 300000 0  850000 300000 0  900000 300000 0  950000 300000 0  1000000 300000 0  0 350000 0  50000 350000 0  100000 350000 0  150000 350000 0  200000 350000 0  250000 350000 0  300000 350000 0  350000 350000 0  400000 350000 0  450000 350000 0  500000 350000 0  550000 350000 0  600000 350000 0  650000 350000 0  700000 350000 0  750000 350000 0  800000 350000 0  850000 350000 0  900000 350000 0  950000 350000 0  1000000 350000 0  0 400000 0  50000 400000 0  100000 400000 0  150000 400000 0  200000 400000 0  250000 400000 0  300000 400000 0  350000 400000 0  400000 400000 0  450000 400000 0  500000 400000 0  550000 400000 0  600000 400000 0  650000 400000 0  700000 400000 0  750000 400000 0  800000 400000 0  850000 400000 0  900000 400000 0  950000 400000 0  1000000 400000 0  0 450000 0  50000 450000 0  100000 450000 0  150000 450000 0  200000 450000 0  250000 450000 0  300000 450000 0  350000 450000 0  400000 450000 0  450000 450000 0  500000 450000 0  550000 450000 0  600000 450000 0  650000 450000 0  700000 450000 0  750000 450000 0  800000 450000 0  850000 450000 0  900000 450000 0  950000 450000 0  1000000 450000 0  0 500000 0  50000 500000 0  100000 500000 0  150000 500000 0  200000 500000 0  250000 500000 0  300000 500000 0  350000 500000 0  400000 500000 0  450000 500000 0  500000 500000 0  550000 500000 0  600000 500000 0  650000 500000 0  700000 500000 0  750000 500000 0  800000 500000 0  850000 500000 0  900000 500000 0  950000 500000 0  1000000 500000 0  0 550000 0  50000 550000 0  100000 550000 0  150000 550000 0  200000 550000 0  250000 550000 0  300000 550000 0  350000 550000 0  400000 550000 0  450000 550000 0  500000 550000 0  550000 550000 0  600000 550000 0  650000 550000 0  700000 550000 0  750000 550000 0  800000 550000 0  850000 550000 0  900000 550000 0  950000 550000 0  1000000 550000 0  0 600000 0  50000 600000 0  100000 600000 0  150000 600000 0  200000 600000 0  250000 600000 0  300000 600000 0  350000 600000 0  400000 600000 0  450000 600000 0  500000 600000 0  550000 600000 0  600000 600000 0  650000 600000 0  700000 600000 0  750000 600000 0  800000 600000 0  850000 600000 0  900000 600000 0  950000 600000 0  1000000 600000 0  0 650000 0  50000 650000 0  100000 650000 0  150000 650000 0  200000 650000 0  250000 650000 0  300000 650000 0  350000 650000 0  400000 650000 0  450000 650000 0  500000 650000 0  550000 650000 0  600000 650000 0  650000 650000 0  700000 650000 0  750000 650000 0  800000 650000 0  850000 650000 0  900000 650000 0  950000 650000 0  1000000 650000 0  0 700000 0  50000 700000 0  100000 700000 0  150000 700000 0  200000 700000 0  250000 700000 0  300000 700000 0  350000 700000 0  400000 700000 0  450000 700000 0  500000 700000 0  550000 700000 0  600000 700000 0  650000 700000 0  700000 700000 0  750000 700000 0  800000 700000 0  850000 700000 0  900000 700000 0  950000 700000 0  1000000 700000 0  0 750000 0  50000 750000 0  100000 750000 0  150000 750000 0  200000 750000 0  250000 750000 0  300000 750000 0  350000 750000 0  400000 750000 0  450000 750000 0  500000 750000 0  550000 750000 0  600000 750000 0  650000 750000 0  700000 750000 0  750000 750000 0  800000 750000 0  850000 750000 0  900000 750000 0  950000 750000 0  1000000 750000 0  0 800000 0  50000 800000 0  100000 800000 0  150000 800000 0  200000 800000 0  250000 800000 0  300000 800000 0  350000 800000 0  400000 800000 0  450000 800000 0  500000 800000 0  550000 800000 0  600000 800000 0  650000 800000 0  700000 800000 0  750000 800000 0  800000 800000 0  850000 800000 0  900000 800000 0  950000 800000 0  1000000 800000 0  0 850000 0  50000 850000 0  100000 850000 0  150000 850000 0  200000 850000 0  250000 850000 0  300000 850000 0  350000 850000 0  400000 850000 0  450000 850000 0  500000 850000 0  550000 850000 0  600000 850000 0  650000 850000 0  700000 850000 0  750000 850000 0  800000 850000 0  850000 850000 0  900000 850000 0  950000 850000 0  1000000 850000 0  0 900000 0  50000 900000 0  100000 900000 0  150000 900000 0  200000 900000 0  250000 900000 0  300000 900000 0  350000 900000 0  400000 900000 0  450000 900000 0  500000 900000 0  550000 900000 0  600000 900000 0  650000 900000 0  700000 900000 0  750000 900000 0  800000 900000 0  850000 900000 0  900000 900000 0  950000 900000 0  1000000 900000 0  0 950000 0  50000 950000 0  100000 950000 0  150000 950000 0  200000 950000 0  250000 950000 0  300000 950000 0  350000 950000 0  400000 950000 0  450000 950000 0  500000 950000 0  550000 950000 0  600000 950000 0  650000 950000 0  700000 950000 0  750000 950000 0  800000 950000 0  850000 950000 0  900000 950000 0  950000 950000 0  1000000 950000 0  0 1000000 0  50000 1000000 0  100000 1000000 0  150000 1000000 0  200000 1000000 0  250000 1000000 0  300000 1000000 0  350000 1000000 0  400000 1000000 0  450000 1000000 0  500000 1000000 0  550000 1000000 0  600000 1000000 0  650000 1000000 0  700000 1000000 0  750000 1000000 0  800000 1000000 0  850000 1000000 0  900000 1000000 0  950000 1000000 0  1000000 1000000 0  0 1050000 0  50000 1050000 0  100000 1050000 0  150000 1050000 0  200000 1050000 0  250000 1050000 0  300000 1050000 0  350000 1050000 0  400000 1050000 0  450000 1050000 0  500000 1050000 0  550000 1050000 0  600000 1050000 0  650000 1050000 0  700000 1050000 0  750000 1050000 0  800000 1050000 0  850000 1050000 0  900000 1050000 0  950000 1050000 0  1000000 1050000 0  0 1100000 0  50000 1100000 0  100000 1100000 0  150000 1100000 0  200000 1100000 0  250000 1100000 0  300000 1100000 0  350000 1100000 0  400000 1100000 0  450000 1100000 0  500000 1100000 0  550000 1100000 0  600000 1100000 0  650000 1100000 0  700000 1100000 0  750000 1100000 0  800000 1100000 0  850000 1100000 0  900000 1100000 0  950000 1100000 0  1000000 1100000 0  0 1150000 0  50000 1150000 0  100000 1150000 0  150000 1150000 0  200000 1150000 0  250000 1150000 0  300000 1150000 0  350000 1150000 0  400000 1150000 0  450000 1150000 0  500000 1150000 0  550000 1150000 0  600000 1150000 0  650000 1150000 0  700000 1150000 0  750000 1150000 0  800000 1150000 0  850000 1150000 0  900000 1150000 0  950000 1150000 0  1000000 1150000 0  0 1200000 0  50000 1200000 0  100000 1200000 0  150000 1200000 0  200000 1200000 0  250000 1200000 0  300000 1200000 0  350000 1200000 0  400000 1200000 0  450000 1200000 0  500000 1200000 0  550000 1200000 0  600000 1200000 0  650000 1200000 0  700000 1200000 0  750000 1200000 0  800000 1200000 0  850000 1200000 0  900000 1200000 0  950000 1200000 0  1000000 1200000 0  0 1250000 0  50000 1250000 0  100000 1250000 0  150000 1250000 0  200000 1250000 0  250000 1250000 0  300000 1250000 0  350000 1250000 0  400000 1250000 0  450000 1250000 0  500000 1250000 0  550000 1250000 0  600000 1250000 0  650000 1250000 0  700000 1250000 0  750000 1250000 0  800000 1250000 0  850000 1250000 0  900000 1250000 0  950000 1250000 0  1000000 1250000 0  0 1300000 0  50000 1300000 0  100000 1300000 0  150000 1300000 0  200000 1300000 0  250000 1300000 0  300000 1300000 0  350000 1300000 0  400000 1300000 0  450000 1300000 0  500000 1300000 0  550000 1300000 0  600000 1300000 0  650000 1300000 0  700000 1300000 0  750000 1300000 0  800000 1300000 0  850000 1300000 0  900000 1300000 0  950000 1300000 0  1000000 1300000 0  0 1350000 0  50000 1350000 0  100000 1350000 0  150000 1350000 0  200000 1350000 0  250000 1350000 0  300000 1350000 0  350000 1350000 0  400000 1350000 0  450000 1350000 0  500000 1350000 0  550000 1350000 0  600000 1350000 0  650000 1350000 0  700000 135
[...]
<PointData  Scalars="f_21"> 
<DataArray  type="Float64"  Name="f_21"  format="ascii">-8.1473177409579822e+00  -8.1452580232068694e+00  -8.1350929792477391e+00  -8.1167920369651831e+00  -8.0908301431147862e+00  -8.0578983727923355e+00  -8.0188718581915577e+00  -7.9747848442381306e+00  -7.9268029552330317e+00  -7.8761921316538244e+00  -7.8242850151368843e+00  -7.7724456920418232e+00  -7.7220337132577814e+00  -7.6743683178229647e+00  -7.6306938232585386e+00  -7.5921472787604367e+00  -7.5597299832366369e+00  -7.5342860552040527e+00  -7.5164931439838281e+00  -7.5068292735997630e+00  -7.5047412053755345e+00  -8.1492685609514766e+00  -8.1472555340893766e+00  -8.1369450739786391e+00  -8.1185233412052096e+00  -8.0924270829727707e+00  -8.0593344567076244e+00  -8.0201174366943864e+00  -7.9758118711051029e+00  -7.9275874121843284e+00  -7.8767153847991231e+00  -7.8245346196324110e+00  -7.7724158387195663e+00  -7.7217253853722170e+00  -7.6737891626054111e+00  -7.6298576741558035e+00  -7.5910730697793900e+00  -7.5584389780994483e+00  -7.5327929529033657e+00  -7.5147761243023616e+00  -7.5047707187581087e+00  -7.5026826351093572e+00  -8.1588105877114607e+00  -8.1569393214635983e+00  -8.1463926502540662e+00  -8.1274154204353444e+00  -8.1005309719990191e+00  -8.0664521574893424e+00  -8.0260772693515694e+00  -7.9804700313719099e+00  -7.9308316734478561e+00  -7.8784684429931335e+00  -7.8247564187520355e+00  -7.7711047631909302e+00  -7.7189183244718009e+00  -7.6695604697223159e+00  -7.6243170568184020e+00  -7.5843625116904461e+00  -7.5507290725843657e+00  -7.5242802747936768e+00  -7.5056886855228342e+00  -7.4954079715889996e+00  -7.4935376408880714e+00  -8.1758228479257244e+00  -8.1739735468387416e+00  -8.1630323717615951e+00  -8.1431536042743051e+00  -8.1149139687000211e+00  -8.0790921274172689e+00  -8.0366462410483130e+00  -7.9886997888653113e+00  -7.9365168049309771e+00  -7.8814699667680133e+00  -7.8250046434323117e+00  -7.7686007903109910e+00  -7.7137339872347859e+00  -7.6618367032353314e+00  -7.6142608647071945e+00  -7.5722429508926403e+00  -7.5368731377579063e+00  -7.5090701684128147e+00  -7.4895610784448836e+00  -7.4788434672793311e+00  -7.4769720015297239e+00  -8.2000376982436176e+00  -8.1981362034524103e+00  -8.1865729615079239e+00  -8.1654237379144128e+00  -8.1352876419234956e+00  -8.0970103795353179e+00  -8.0516310757676202e+00  -8.0003605603909786e+00  -7.9445555873425207e+00  -7.8856862733713697e+00  -7.8252988844548934e+00  -7.7649759977407555e+00  -7.7062955720054855e+00  -7.6507902028551005e+00  -7.5999078010774452e+00  -7.5549750539218108e+00  -7.5171651607590046e+00  -7.4874706783457663e+00  -7.4666768656348150e+00  -7.4553019950706547e+00  -7.4533260107377863e+00  -8.2313016402286667e+00  -8.2292924136516117e+00  -8.2168705138027018e+00  -8.1940594539574096e+00  -8.1614809324512994e+00  -8.1200497251932529e+00  -8.0708999542688566e+00  -8.0153523035682550e+00  -7.9548832474914386e+00  -7.8910896284931811e+00  -7.8256490219656731e+00  -7.7602774414910476e+00  -7.6966858611901534e+00  -7.6365368704412555e+00  -7.5814027292332025e+00  -7.5327261216371380e+00  -7.4917847461839058e+00  -7.4596594616436755e+00  -7.4371986516411068e+00  -7.4249401448529735e+00  -7.4228035205697864e+00  -8.2695670417052245e+00  -8.2674028582504011e+00  -8.2538878628007399e+00  -8.2290133645481074e+00  -8.1934360121961216e+00  -8.1481495455904209e+00  -8.0943976020005977e+00  -8.0336311986997906e+00  -7.9674714305427781e+00  -7.8976694741454718e+00  -7.8260632764771847e+00  -7.7545319222461035e+00  -7.6849489066054693e+00  -7.6191355005700991e+00  -7.5588153649823617e+00  -7.5055715307038167e+00  -7.4608065182246017e+00  -7.4257045841648601e+00  -7.4011874314791619e+00  -7.3878220692906780e+00  -7.3854826446800548e+00  -8.3148703963266275e+00  -8.3125075295074495e+00  -8.2976670661443972e+00  -8.2703211711106039e+00  -8.2311774349794664e+00  -8.1813238859883430e+00  -8.1221310362971959e+00  -8.0552011561164978e+00  -7.9823241778446290e+00  -7.9054321690811742e+00  -7.8265513807972855e+00  -7.7477524902024300e+00  -7.6710999665548689e+00  -7.5986015059692562e+00  -7.5321584745960735e+00  -7.4735182602046519e+00  -7.4242290597576321e+00  -7.3855957743077747e+00  -7.3586277322134093e+00  -7.3439343009424842e+00  -7.3413540409363609e+00  -8.3673081971601473e+00  -8.3647040522710174e+00  -8.3483050702622403e+00  -8.3180729001857561e+00  -8.2747828782403996e+00  -8.2196358234951283e+00  -8.1541492964299707e+00  -8.0800991983015056e+00  -7.9994688034396511e+00  -7.9143971707491101e+00  -7.8271259310670898e+00  -7.7399448682111620e+00  -7.6551369241770111e+00  -7.5749232522962053e+00  -7.5014089585284349e+00  -7.4365301952952141e+00  -7.3820029961105620e+00  -7.3392724497960504e+00  -7.3094524991374694e+00  -7.2932090246097570e+00  -7.2903510483514138e+00  -8.4270111010373974e+00  -8.4241228961173569e+00  -8.4059288835073573e+00  -8.3723866301492187e+00  -8.3243564188868451e+00  -8.2631725559410949e+00  -8.1905222639505215e+00  -8.1083791673965706e+00  -8.0189450918527481e+00  -7.9245920078200944e+00  -7.8278032156875756e+00  -7.7311140512917422e+00  -7.6370524052366831e+00  -7.5480792532667262e+00  -7.4665294310796302e+00  -7.3945530291553041e+00  -7.3340576933783028e+00  -7.2866504563006744e+00  -7.2535689100332528e+00  -7.2355501490476160e+00  -7.2323776203976031e+00  -8.4941154173390121e+00  -8.4908993414803433e+00  -8.4706681237357291e+00  -8.4333810448805409e+00  -8.3800014703419787e+00  -8.3120200143962393e+00  -8.2313185266290496e+00  -8.1400942034338915e+00  -8.0407933815532076e+00  -7.9360465843717787e+00  -7.8286040038261451e+00  -7.7212715072650679e+00  -7.6168469951877595e+00  -7.5180566990141964e+00  -7.4274910643766807e+00  -7.3475401789260362e+00  -7.2803288857744652e+00  -7.2276502551795954e+00  -7.1908866889569225e+00  -7.1708621798870702e+00  -7.1673377913224341e+00  -8.5687306250297510e+00  -8.5651412424073392e+00  -8.5426233827196416e+00  -8.5011443875302373e+00  -8.4417907336177187e+00  -8.3662348515793941e+00  -8.2765808293260577e+00  -8.1752771164083633e+00  -8.0650410895416478e+00  -7.9487867129271326e+00  -7.8295544940839843e+00  -7.7104434743176045e+00  -7.5945443598889568e+00  -7.4848724699946834e+00  -7.3842992593889392e+00  -7.2954817225690620e+00  -7.2207895500681243e+00  -7.1622287457270932e+00  -7.1213504430297467e+00  -7.0990830672624492e+00  -7.0951687740141001e+00  -8.6509014443542895e+00  -8.6468912303642806e+00  -8.6218288788694739e+00  -8.5756978216322821e+00  -8.5097308809973242e+00  -8.4258115982705934e+00  -8.3262972579753640e+00  -8.2139172722968841e+00  -8.0916867983611898e+00  -7.9628264959445332e+00  -7.8306875325155367e+00  -7.6986809423716940e+00  -7.5702093161704198e+00  -7.4485981116004440e+00  -7.3370239916818214e+00  -7.2384384636555943e+00  -7.1554861879634917e+00  -7.0904166662431081e+00  -7.0449776069962784e+00  -7.0202224964894713e+00  -7.0158793678219276e+00  -8.7405628085473488e+00  -8.7360817387513094e+00  -8.7082076742450791e+00  -8.6569511904723537e+00  -8.5837197168639090e+00  -8.4906426978867344e+00  -8.3803660824768667e+00  -8.2559323296550797e+00  -8.1206807743292195e+00  -7.9781590198992882e+00  -7.8320441817076523e+00  -7.6860720071050643e+00  -7.5439701049906374e+00  -7.4093905042134631e+00  -7.2858369198614055e+00  -7.1765833862619219e+00  -7.0845827416708946e+00  -7.0123635832591225e+00  -6.9619037513988298e+00  -6.9344072775052457e+00  -6.9295953733552453e+00  -8.8374858753769434e+00  -8.8324809824756532e+00  -8.8015174468862458e+00  -8.7446489032288532e+00  -8.6634933136519336e+00  -8.5604688688524995e+00  -8.4385519057960057e+00  -8.3011328986356290e+00  -8.1519005782506717e+00  -7.9947447100880282e+00  -7.8336757166893651e+00  -7.6727573933606790e+00  -7.5160463306951604e+00  -7.3675302495218782e+00  -7.2310576643123596e+00  -7.1102530733514371e+00  -7.0084146513232657e+00  -6.9283927457423982e+00  -6.8724372704758032e+00  -6.8419357033503809e+00  -6.8366138745595233e+00  -8.9412129733011003e+00  -8.9356277517400766e+00  -8.9012844444785699e+00  -8.8383032420492587e+00  -8.7485601631646066e+00  -8.6348168086780657e+00  -8.5004303909612489e+00  -8.3491779039918974e+00  -8.1851202354259200e+00  -8.0124965960854411e+00  -7.8356461212205275e+00  -7.6589500441557092e+00  -7.4867842404790785e+00  -7.3234701179640744e+00  -7.1732120843603724e+00  -7.0400121391612931e+00  -6.9275560436024834e+00  -6.8390685160307250e+00  -6.7771258219227883e+00  -6.7433430205705012e+00  -6.7374684914738951e+00  -9.0509790652279047e+00  -9.0447525312674451e+00  -9.0067227579835141e+00  -8.9371117651489218e+00  -8.8381187264855594e+00  -8.7129206711397327e+00  -8.5653184042102595e+00  -8.3995181630935427e+00  -8.2199712898332233e+00  -8.0312616754209749e+00  -7.8380351460310802e+00  -7.6449597198590835e+00  -7.4567011714523384e+00  -7.2778962129160263e+00  -7.1131058733707233e+00  -6.9667343635136874e+00  -6.8429037319726476e+00  -6.7452797200426797e+00  -6.6768373848014928e+00  -6.6394805215428843e+00  -6.6330080436397569e+00  -9.1656168780013676e+00  -9.1586819657819003e+00  -9.1166353518052965e+00  -9.0398545974588664e+00  -8.9309538834393258e+00  -8.7936230670732165e+00  -8.6321860337131362e+00  -8.4513255795936999e+00  -8.2558940997321102e+00  -8.0507975992941585e+00  -7.8409419513925176e+00  -7.6312234562818233e+00  -7.4265409497247239e+00  -7.2318046658184629e+00  -7.0519172609563281e+00  -6.8917049950138782e+00  -6.7557826624896018e+00  -6.6483431787657192e+00  -6.5728595291622689e+00  -6.5316113047680959e+00  -6.5244915584888989e+00  -9.2834421724826051e+00  -9.2757229234155556e+00  -9.2292921886884098e+00  -9.1447660889327693e+00  -9.0253066240801267e+00  -8.8752506690046751e+00  -8.6995468603646984e+00  -8.5034056951153563e+00  -8.2920781863722635e+00  -8.0707441675555209e+00  -7.8444892621201543e+00  -7.6183423131655621e+00  -7.3973415105212634e+00  -7.1865963923037581e+00  -6.9913128496704244e+00  -6.8167495504767732e+00  -6.6680787501140353e+00  -6.5501330774564117e+00  -6.4670216405640844e+00  -6.4215266035705394e+00  -6.4137033492507065e+00  -9.4021144868814428e+00  -9.3935210869555075e+00  -9.3422789343895278e+00  -9.2493732817142984e+00  -9.1187098360186329e+00  -8.9554591003111845e+00  -8.7653235607243332e+00  -8.5540926889105844e+00  -8.3273917740306267e+00  -8.0905898400759408e+00  -7.8488277684563368e+00  -7.6071237947256689e+00  -7.3705145164231114e+00  -7.1441911514695207e+00  -6.9335901774214399e+00  -6.7443952067154740e+00  -6.5824068595820897e+00  -6.4532440461317186e+00  -6.3618467853885825e+00  -6.3116880518301528e+00  -6.3030932478655215e+00  -9.5184666208019930e+00  -9.5088865730829077e+00  -9.4523064049026431e+00  -9.3502903323237856e+00  -9.2077812363159932e+00  -9.0310422673837110e+00  -8.8266883751681195e+00  -8.6011292597011355e+00  -8.3603036146459946e+00  -8.1096350210335935e+00  -7.8541401423315103e+00  -7.5986271365848870e+00  -7.3479334213228586e+00  -7.1071588286753808e+00  -6.8818485853313298e+00  -6.6780711078610624e+00  -6.5023241586102865e+00  -6.3611995020307113e+00  -6.2607433710380063e+00  -6.2054039220793928e+00  -6.1959495523009744e+00  -9.6282922477102222e+00  -9.6175743896983672e+00  -9.5549646859047197e+00  -9.4429526028980657e+00  -9.2879626908588708e+00  -9.0977040271727159e+00  -8.8798840013465909e+00  -8.6415408296161065e+00  -8.3888059338871344e+00  -8.1269567946475991e+00  -7.8606434146507169e+00  -7.5942045924823454e+00  -7.3320199002962374e+00  -7.0788587047327596e+00  -6.8401845973719189e+00  -6.6223524834052832e+00  -6.4326022770557323e+00  -6.2787230893284676e+00  -6.1682532229196996e+00  -6.1070524141499618e+00  -6.0966169178996674e+00  -9.7260735827566602e+00  -9.7139980905632903e+00  -9.6443937615224460e+00  -9.5212652873277079e+00  -9.3531946921299376e+00  -9.1497981409448617e+00  -8.9200433879678176e+00  -8.6715267378851504e+00  -8.4103574052727854e+00  -8.1413847402498956e+00  -7.8685874936154772e+00  -7.5955250355307182e+00  -7.3258069365504142e+00  -7.0635635153557512e+00  -6.8138958162701639e+00  -6.5832477029137246e+00  -6.3795751337469611e+00  -6.2121019330258544e+00  -6.0903852217048833e+00  -6.0223749486655933e+00  -6.0107805242895731e+00  -9.8046164293941001e+00  -9.7908349602588398e+00  -9.7128184813018841e+00  -9.5771280584246039e+00  -9.3955200341847114e+00  -9.1800624910150379e+00  -8.9410523438595959e+00  -8.6864139098305717e+00  -8.4218809249124646e+00  -8.1515048999245376e+00  -7.8782463203619084e+00  -7.6045560150912959e+00  -7.3329380671095086e+00  -7.0665199337533569e+00  -6.8096517560410881e+00  -6.5685108583780769e+00  -6.3515802626988105e+00  -6.1696890359057361e+00  -6.0350887898816898e+00  -5.9588825591542545e+00  -5.9458562481558754e+00  -9.8545308250717927e+00  -9.8384357158108440e+00  -9.7498477043672409e+00  -9.5997816254914401e+00  -9.4046347027069306e+00  -9.1794192163233745e+00  -8.9355453068613269e+00  -8.6807538439212202e+00  -8.4198725440554387e+00  -8.1557183695874276e+00  -7.8898968816204773e+00  -7.6234677647692202e+00  -7.3575357598280196e+00  -7.0938555640749481e+00  -6.8355393506237201e+00  -6.5879198453101653e+00  -6.3594999508981154e+00  -6.1626220845377473e+00  -6.0129739994854834e+00  -5.9264619364482076e+00  -5.9115657072186396e+00  -9.8634359333289776e+00  -9.8438402998845387e+00  -9.7413446605828522e+00  -9.5749234073848388e+00  -9.3674815995482277e+00  -9.1370092580944533e+00  -8.8952012690139277e+00  -8.6486899230876233e+00  -8.4007000878348332e+00  -8.1523890221227546e+00  -7.9037808484283563e+00  -7.6544122334688591e+00  -7.4038428705876003e+00  -7.1521830679691227e+00  -6.9007974395409883e+00  -6.6533556835202203e+00  -6.4173498780902651e+00  -6.2058741515910780e+00  -6.0384989163642269e+00  -5.9383696304036526e+00  -5.9208647804370420e+00  -9.8146347080844709e+00  -9.7889048213625305e+00  -9.6675220136154270e+00  -9.4836404318120628e+00  -9.2681979123854799e+00  -9.0408152940858262e+00  -8.8116123774517288e+00  -8.5847618616955224e+00  -8.3611760524127838e+00  -8.1401124962273510e+00  -7.9200448567020114e+00  -7.6991332131361911e+00  -7.4755287107812434e+00  -7.2476907369167574e+00  -7.0149054712010219e+00  -6.7782813940773821e+00  -6.5426443061600583e+00  -6.3197420453070663e+00  -6.1320979128475344e+00  -6.0130714027450027e+00  -5.9916245138264488e+00  -9.6845918551719326e+00  -9.6462296149527393e+00  -9.4998149297932137e+00  -9.3016922049345698e+00  -9.0892438065312682e+00  -8.8795193658308786e+00  -8.6780839352855068e+00  -8.4852936478213543e+00  -8.2994419706856508e+00  -8.1181069181441128e+00  -7.9386559977308941e+00  -7.7583958242890336e+00  -7.5745948583683766e+00  -7.3845070094014860e+00  -7.1855307072520338e+00  -6.9757652795253318e+00  -6.7555720958439842e+00  -6.5314736988038256e+00  -6.3242202509180148e+00  -6.1782089183892683e+00  -6.1501520280178941e+00  -9.4366313750940112e+00  -9.3695845365254034e+00  -9.1969245135911191e+00  -9.0013196546178929e+00  -8.8155253746088622e+00  -8.6464945866331178e+00  -8.4926100419406474e+00  -8.3503074238747246e+00  -8.2160324127919822e+00  -8.0866282008571666e+00  -7.9592692271850662e+00  -7.8312837032597846e+00  -7.6999526497873552e+00  -7.5622994331923454e+00  -7.4148805969565847e+00  -7.2536597678817536e+00  -7.0743321693203658e+00  -6.8744763913311475e+00  -6.6622028867642369e+00  -6.4810362477491426e+00  -6.4400096380135547e+00  -8.9968015606920595e+00  -8.8724617272396102e+00  -8.7061617259825947e+00  -8.5618585337854967e+00  -8.4442689841816669e+00  -8.3462984144890981e+00  -8.2614744946797298e+00  -8.1852700761454305e+00  -8.1145573925498304e+00  -8.0470412941031366e+00  -7.9808733127998774e+00  -7.9143881370339084e+00  -7.8458922417179746e+00  -7.7734449947206707e+00  -7.6945665556453493e+00  -7.6057752292167571e+00  -7.5018092347298051e+00  -7.3745091661125182e+00  -7.2130018685588748e+00  -7.0199364812921061e+00  -6.9511911263424926e+00  -8.0000000000000000e+00  -8.0000000000000000e+00  -8.0000000000000000e+00  -8.0000000000000000e+00  -8.0000000000000000e+00  -8.0000000000000000e+00  -8.0000000000000000e+00  -8.0000000000000000e+00  -8.0000000000000000e+00  -8.0000000000000000e+00  -8.0000000000000000e+00  -8.0000000000000000e+00  -8.0000000000000000e+00  -8.0000000000000000e+00  -8.0000000000000000e+00  -8.0000000000000000e+00  -8.0000000000000000e+00  -8.0000000000000000e+00  -8.0000000000000000e+00  -8.0000000000000000e+00  -8.0000000000000000e+00  </DataArray> 
</PointData> 
</Piece>
</UnstructuredGrid>
</VTKFile>