<?xml version="1.0"?>
<VTKFile type="UnstructuredGrid"  version="0.1"  >
<UnstructuredGrid>
<Piece  NumberOfPoints="651" NumberOfCells="1200">
<Points>
<DataArray  type="Float64"  NumberOfComponents="3"  format="ascii">0 0 0  50000 0 0  100000 0 0  150000 0 0  200000 0 0  250000 0 0  300000 0 0  350000 0 0  400000 0 0  450000 0 0  500000 0 0  550000 0 0  600000 0 0  650000 0 0  700000 0 0  750000 0 0  800000 0 0  850000 0 0  900000 0 0  950000 0 0  1000000 0 0  0 50000 0  50000 50000 0  100000 50000 0  150000 50000 0  200000 50000 0  250000 50000 0  300000 50000 0  350000 50000 0  400000 50000 0  450000 50000 0  500000 50000 0  550000 50000 0  600000 50000 0  650000 50000 0  700000 50000 0  750000 50000 0  800000 50000 0  850000 50000 0  900000 50000 0  950000 50000 0  1000000 50000 0  0 100000 0  50000 100000 0  100000 100000 0  150000 100000 0  200000 100000 0  250000 100000 0  300000 100000 0  350000 100000 0  400000 100000 0  450000 100000 0  500000 100000 0  550000 100000 0  600000 100000 0  650000 100000 0  700000 100000 0  750000 100000 0  800000 100000 0  850000 100000 0  900000 100000 0  950000 100000 0  1000000 100000 0  0 150000 0  50000 150000 0  100000 150000 0  150000 150000 0  200000 150000 0  250000 150000 0  300000 150000 0  350000 150000 0  400000 150000 0  450000 150000 0  500000 150000 0  550000 150000 0  600000 150000 0  650000 150000 0  700000 150000 0  750000 150000 0  800000 150000 0  850000 150000 0  900000 150000 0  950000 150000 0  1000000 150000 0  0 200000 0  50000 200000 0  100000 200000 0  150000 200000 0  200000 200000 0  250000 200000 0  300000 200000 0  350000 200000 0  400000 200000 0  450000 200000 0  500000 200000 0  550000 200000 0  600000 200000 0  650000 200000 0  700000 200000 0  750000 200000 0  800000 200000 0  850000 200000 0  900000 200000 0  950000 200000 0  1000000 200000 0  0 250000 0  50000 250000 0  100000 250000 0  150000 250000 0  200000 250000 0  250000 250000 0  300000 250000 0  350000 250000 0  400000 250000 0  450000 250000 0  500000 250000 0  550000 250000 0  600000 250000 0  650000 250000 0  700000 250000 0  750000 250000 0  800000 250000 0  850000 250000 0  900000 250000 0  950000 250000 0  1000000 250000 0  0 300000 0  50000 300000 0  100000 300000 0  150000 300000 0  200000 300000 0  250000 300000 0  300000 300000 0  350000 300000 0  400000 300000 0  450000 300000 0  500000 300000 0  550000 300000 0  600000 300000 0  650000 300000 0  700000 300000 0  750000 300000 0  800000 300000 0  850000 300000 0  900000 300000 0  950000 300000 0  1000000 300000 0  0 350000 0  50000 350000 0  100000 350000 0  150000 350000 0  200000 350000 0  250000 350000 0  300000 350000 0  350000 350000 0  400000 350000 0  450000 350000 0  500000 350000 0  550000 350000 0  600000 350000 0  650000 350000 0  700000 350000 0  750000 350000 0  800000 350000 0  850000 350000 0  900000 350000 0  950000 350000 0  1000000 350000 0  0 400000 0  50000 400000 0  100000 400000 0  150000 400000 0  200000 400000 0  250000 400000 0  300000 400000 0  350000 400000 0  400000 400000 0  450000 400000 0  500000 400000 0  550000 400000 0  600000 400000 0  650000 400000 0  700000 400000 0  750000 400000 0  800000 400000 0  850000 400000 0  900000 400000 0  950000 400000 0  1000000 400000 0  0 450000 0  50000 450000 0  100000 450000 0  150000 450000 0  200000 450000 0  250000 450000 0  300000 450000 0  350000 450000 0  400000 450000 0  450000 450000 0  500000 450000 0  550000 450000 0  600000 450000 0  650000 450000 0  700000 450000 0  750000 450000 0  800000 450000 0  850000 450000 0  900000 450000 0  950000 450000 0  1000000 450000 0  0 500000 0  50000 500000 0  100000 500000 0  150000 500000 0  200000 500000 0  250000 500000 0  300000 500000 0  350000 500000 0  400000 500000 0  450000 500000 0  500000 500000 0  550000 500000 0  600000 500000 0  650000 500000 0  700000 500000 0  750000 500000 0  800000 500000 0  850000 500000 0  900000 500000 0  950000 500000 0  1000000 500000 0  0 550000 0  50000 550000 0  100000 550000 0  150000 550000 0  200000 550000 0  250000 550000 0  300000 550000 0  350000 550000 0  400000 550000 0  450000 550000 0  500000 550000 0  550000 550000 0  600000 550000 0  650000 550000 0  700000 550000 0  750000 550000 0  800000 550000 0  850000 550000 0  900000 550000 0  950000 550000 0  1000000 550000 0  0 600000 0  50000 600000 0  100000 600000 0  150000 600000 0  200000 600000 0  250000 600000 0  300000 600000 0  350000 600000 0  400000 600000 0  450000 600000 0  500000 600000 0  550000 600000 0  600000 600000 0  650000 600000 0  700000 600000 0  750000 600000 0  800000 600000 0  850000 600000 0  900000 600000 0  950000 600000 0  1000000 600000 0  0 650000 0  50000 650000 0  100000 650000 0  150000 650000 0  200000 650000 0  250000 650000 0  300000 650000 0  350000 650000 0  400000 650000 0  450000 650000 0  500000 650000 0  550000 650000 0  600000 650000 0  650000 650000 0  700000 650000 0  750000 650000 0  800000 650000 0  850000 650000 0  900000 650000 0  950000 650000 0  1000000 650000 0  0 700000 0  50000 700000 0  100000 700000 0  150000 700000 0  200000 700000 0  250000 700000 0  300000 700000 0  350000 700000 0  400000 700000 0  450000 700000 0  500000 700000 0  550000 700000 0  600000 700000 0  650000 700000 0  700000 700000 0  750000 700000 0  800000 700000 0  850000 700000 0  900000 700000 0  950000 700000 0  1000000 700000 0  0 750000 0  50000 750000 0  100000 750000 0  150000 750000 0  200000 750000 0  250000 750000 0  300000 750000 0  350000 750000 0  400000 750000 0  450000 750000 0  500000 750000 0  550000 750000 0  600000 750000 0  650000 750000 0  700000 750000 0  750000 750000 0  800000 750000 0  850000 750000 0  900000 750000 0  950000 750000 0  1000000 750000 0  0 800000 0  50000 800000 0  100000 800000 0  150000 800000 0  200000 800000 0  250000 800000 0  300000 800000 0  350000 800000 0  400000 800000 0  450000 800000 0  500000 800000 0  550000 800000 0  600000 800000 0  650000 800000 0  700000 800000 0  750000 800000 0  800000 800000 0  850000 800000 0  900000 800000 0  950000 800000 0  1000000 800000 0  0 850000 0  50000 850000 0  100000 850000 0  150000 850000 0  200000 850000 0  250000 850000 0  300000 850000 0  350000 850000 0  400000 850000 0  450000 850000 0  500000 850000 0  550000 850000 0  600000 850000 0  650000 850000 0  700000 850000 0  750000 850000 0  800000 850000 0  850000 850000 0  900000 850000 0  950000 850000 0  1000000 850000 0  0 900000 0  50000 900000 0  100000 900000 0  150000 900000 0  200000 900000 0  250000 900000 0  300000 900000 0  350000 900000 0  400000 900000 0  450000 900000 0  500000 900000 0  550000 900000 0  600000 900000 0  650000 900000 0  700000 900000 0  750000 900000 0  800000 900000 0  850000 900000 0  900000 900000 0  950000 900000 0  1000000 900000 0  0 950000 0  50000 950000 0  100000 950000 0  150000 950000 0  200000 950000 0  250000 950000 0  300000 950000 0  350000 950000 0  400000 950000 0  450000 950000 0  500000 950000 0  550000 950000 0  600000 950000 0  650000 950000 0  700000 950000 0  750000 950000 0  800000 950000 0  850000 950000 0  900000 950000 0  950000 950000 0  1000000 950000 0  0 1000000 0  50000 1000000 0  100000 1000000 0  150000 1000000 0  200000 1000000 0  250000 1000000 0  300000 1000000 0  350000 1000000 0  400000 1000000 0  450000 1000000 0  500000 1000000 0  550000 1000000 0  600000 1000000 0  650000 1000000 0  700000 1000000 0  750000 1000000 0  800000 1000000 0  850000 1000000 0  900000 1000000 0  950000 1000000 0  1000000 1000000 0  0 1050000 0  50000 1050000 0  100000 1050000 0  150000 1050000 0  200000 1050000 0  250000 1050000 0  300000 1050000 0  350000 1050000 0  400000 1050000 0  450000 1050000 0  500000 1050000 0  550000 1050000 0  600000 1050000 0  650000 1050000 0  700000 1050000 0  750000 1050000 0  800000 1050000 0  850000 1050000 0  900000 1050000 0  950000 1050000 0  1000000 1050000 0  0 1100000 0  50000 1100000 0  100000 1100000 0  150000 1100000 0  200000 1100000 0  250000 1100000 0  300000 1100000 0  350000 1100000 0  400000 1100000 0  450000 1100000 0  500000 1100000 0  550000 1100000 0  600000 1100000 0  650000 1100000 0  700000 1100000 0  750000 1100000 0  800000 1100000 0  850000 1100000 0  900000 1100000 0  950000 1100000 0  1000000 1100000 0  0 1150000 0  50000 1150000 0  100000 1150000 0  150000 1150000 0  200000 1150000 0  250000 1150000 0  300000 1150000 0  350000 1150000 0  400000 1150000 0  450000 1150000 0  500000 1150000 0  550000 1150000 0  600000 1150000 0  650000 1150000 0  700000 1150000 0  750000 1150000 0  800000 1150000 0  850000 1150000 0  900000 1150000 0  950000 1150000 0  1000000 1150000 0  0 1200000 0  50000 1200000 0  100000 1200000 0  150000 1200000 0  200000 1200000 0  250000 1200000 0  300000 1200000 0  350000 1200000 0  400000 1200000 0  450000 1200000 0  500000 1200000 0  550000 1200000 0  600000 1200000 0  650000 1200000 0  700000 1200000 0  750000 1200000 0  800000 1200000 0  850000 1200000 0  900000 1200000 0  950000 1200000 0  1000000 1200000 0  0 1250000 0  50000 1250000 0  100000 1250000 0  150000 1250000 0  200000 1250000 0  250000 1250000 0  300000 1250000 0  350000 1250000 0  400000 1250000 0  450000 1250000 0  500000 1250000 0  550000 1250000 0  600000 1250000 0  650000 1250000 0  700000 1250000 0  750000 1250000 0  800000 1250000 0  850000 1250000 0  900000 1250000 0  950000 1250000 0  1000000 1250000 0  0 1300000 0  50000 1300000 0  100000 1300000 0  150000 1300000 0  200000 1300000 0  250000 1300000 0  300000 1300000 0  350000 1300000 0  400000 1300000 0  450000 1300000 0  500000 1300000 0  550000 1300000 0  600000 1300000 0  650000 1300000 0  700000 1300000 0  750000 1300000 0  800000 1300000 0  850000 1300000 0  900000 1300000 0  950000 1300000 0  1000000 1300000 0  0 1350000 0  50000 1350000 0  100000 1350000 0  150000 1350000 0  200000 1350000 0  250000 1350000 0  300000 1350000 0  350000 1350000 0  400000 1350000 0  450000 1350000 0  500000 1350000 0  550000 1350000 0  600000 1350000 0  650000 1350000 0  700000 135
[...]
<PointData  Scalars="f_21"> 
<DataArray  type="Float64"  Name="f_21"  format="ascii">-8.0617482185013980e+00  -8.0608769763952601e+00  -8.0566349956388326e+00  -8.0490080689333787e+00  -8.0381904433959601e+00  -8.0244674786549979e+00  -8.0082022733854483e+00  -7.9898251449029765e+00  -7.9698219268991330e+00  -7.9487208601095372e+00  -7.9270783990512079e+00  -7.9054643182605400e+00  -7.8844465074604893e+00  -7.8645758504356413e+00  -7.8463715967572369e+00  -7.8303076882278937e+00  -7.8168007028584157e+00  -7.8062007073041713e+00  -7.7987870334392220e+00  -7.7947542740304092e+00  -7.7938771183696343e+00  -8.0625865975079911e+00  -8.0617347112534059e+00  -8.0574331749927008e+00  -8.0497554579377972e+00  -8.0388805473420284e+00  -8.0250886879182612e+00  -8.0087418127174033e+00  -7.9902710084706348e+00  -7.9701638706816951e+00  -7.9489509617432388e+00  -7.9271913919740218e+00  -7.9054577773381531e+00  -7.8843209130609928e+00  -7.8643345325187415e+00  -7.8460205325999413e+00  -7.8298550480965581e+00  -7.8162557065523792e+00  -7.8055700038822371e+00  -7.7980626165767006e+00  -7.7938897803630285e+00  -7.7930115659046137e+00  -8.0665803907214908e+00  -8.0657846831513726e+00  -8.0613832289898948e+00  -8.0534738948924325e+00  -8.0422706026398210e+00  -8.0280677664101940e+00  -8.0112382180054897e+00  -7.9922246595884054e+00  -7.9715278624630299e+00  -7.9496929637565206e+00  -7.9272946201314243e+00  -7.9049214919093096e+00  -7.8831604445764683e+00  -7.8625808442986536e+00  -7.8437193341093447e+00  -7.8270654999434823e+00  -7.8130488711589052e+00  -7.8020277030678411e+00  -7.7942795651644294e+00  -7.7899898136924550e+00  -7.7891973067239704e+00  -8.0736831207952218e+00  -8.0728940575983597e+00  -8.0683251159356892e+00  -8.0600386606830607e+00  -8.0482704830015361e+00  -8.0333418243907690e+00  -8.0156501145933046e+00  -7.9956627646912910e+00  -7.9739066102935290e+00  -7.9509544086343951e+00  -7.9274096518333623e+00  -7.9038904723829742e+00  -7.8810131828805829e+00  -7.8593759078974781e+00  -7.8395427634248485e+00  -7.8220290978979303e+00  -7.8072884282429404e+00  -7.7957017727604221e+00  -7.7875690835905065e+00  -7.7830939497046625e+00  -7.7822981196868657e+00  -8.0837897199041979e+00  -8.0829763827688321e+00  -8.0781448493121637e+00  -8.0693266443712606e+00  -8.0567672177307497e+00  -8.0408154064346249e+00  -8.0219019866336172e+00  -8.0005304816487719e+00  -7.9772661747318718e+00  -7.9527223054783329e+00  -7.9275443312959943e+00  -7.9023930899507580e+00  -7.8779275015458641e+00  -7.8547873461923778e+00  -7.8335766389953960e+00  -7.8148481734477615e+00  -7.7990898601035124e+00  -7.7867132349930142e+00  -7.7780423607797431e+00  -7.7732898088807341e+00  -7.7724480410155845e+00  -8.0968422316732536e+00  -8.0959812444533075e+00  -8.0907884158720655e+00  -8.0812748098773977e+00  -8.0676957151550024e+00  -8.0504286403872012e+00  -8.0299436622456870e+00  -8.0067898127785018e+00  -7.9815820666300654e+00  -7.9549863426370724e+00  -7.9277027373537878e+00  -7.9004476419710006e+00  -7.8739353609120979e+00  -7.8488597855023468e+00  -7.8258766579226720e+00  -7.8055869742340178e+00  -7.7885220166285460e+00  -7.7751299493091972e+00  -7.7657611181336117e+00  -7.7606366871149630e+00  -7.7597254125361319e+00  -8.1128263419749196e+00  -8.1118976461517835e+00  -8.1062455618064799e+00  -8.0958686114245051e+00  -8.0810369471305812e+00  -8.0621609475378619e+00  -8.0397561459270346e+00  -8.0144256934496276e+00  -7.9868446858401789e+00  -7.9577432720182681e+00  -7.9278883450226356e+00  -7.8980642481508916e+00  -7.8690530169161450e+00  -7.8416146603084353e+00  -7.8164679727782946e+00  -7.7942723557299995e+00  -7.7756109956690693e+00  -7.7609750456516275e+00  -7.7507454243582199e+00  -7.7451558008204087e+00  -7.7441570737709347e+00  -8.1317624617091973e+00  -8.1307473551949645e+00  -8.1245386753560940e+00  -8.1131275640821983e+00  -8.0968055249246369e+00  -8.0760221760337974e+00  -8.0513458066631483e+00  -8.0234424917831095e+00  -7.9930576279128394e+00  -7.9609967475761607e+00  -7.9281052676883945e+00  -7.8952474577901945e+00  -7.8632850307330502e+00  -7.8330557629515880e+00  -7.8053525492071092e+00  -7.7809032843686410e+00  -7.7603518233866806e+00  -7.7442395435592033e+00  -7.7329838819084795e+00  -7.7268363630463179e+00  -7.7257338764389862e+00  -8.1536958067993375e+00  -8.1525759774872792e+00  -8.1457128314326983e+00  -8.1330935535445992e+00  -8.1150378393793421e+00  -8.0920422062465942e+00  -8.0647361419051897e+00  -8.0338580536524979e+00  -8.0002339549568600e+00  -7.9647557529412660e+00  -7.9283587907710054e+00  -7.8919988513575099e+00  -7.8566289052594991e+00  -7.8231758792226689e+00  -7.7925177287176375e+00  -7.7654611120910424e+00  -7.7427198631466307e+00  -7.7248937613342550e+00  -7.7124438045258792e+00  -7.7056451415268175e+00  -7.7044230138515770e+00  -8.1786857204612389e+00  -8.1774427035147674e+00  -8.1698255394217263e+00  -8.1558200331577222e+00  -8.1357811097573407e+00  -8.1102607570132914e+00  -8.0799591102533483e+00  -8.0456970298145514e+00  -8.0083917659759578e+00  -7.9690325353249714e+00  -7.9286557057246769e+00  -7.8883197405973835e+00  -7.8490800472789948e+00  -7.8119638304556727e+00  -7.7779450665781953e+00  -7.7479197784202727e+00  -7.7226817660312612e+00  -7.7028983085603491e+00  -7.6890818619371224e+00  -7.6815372227251322e+00  -7.6801795412997258e+00  -8.2067938296615690e+00  -8.2054086578899899e+00  -8.1969353350561089e+00  -8.1813606389929010e+00  -8.1590821829855003e+00  -8.1307168949808233e+00  -8.0970459906337169e+00  -8.0589836405850530e+00  -8.0175492740450487e+00  -7.9738402500290260e+00  -7.9290046321147383e+00  -7.8842141392432401e+00  -7.8406372236173834e+00  -7.7994121241970475e+00  -7.7616197674554783e+00  -7.7282565217189862e+00  -7.7002069024656823e+00  -7.6782157681137440e+00  -7.6628558300495664e+00  -7.6544679957634800e+00  -7.6529586027486367e+00  -8.2380704923831285e+00  -8.2365234462828329e+00  -8.2270885743159550e+00  -8.2097562359667773e+00  -8.1849750086660276e+00  -8.1534373702999421e+00  -8.1160171661497138e+00  -8.0737335092521008e+00  -8.0277191982775591e+00  -7.9791902659702920e+00  -7.9294164062697270e+00  -7.8796922076915683e+00  -7.8313088440123675e+00  -7.7855256897942793e+00  -7.7435413618951099e+00  -7.7064639212629569e+00  -7.6752802207541890e+00  -7.6508239600617873e+00  -7.6337380750750796e+00  -7.6244068471800333e+00  -7.6227292284852570e+00  -8.2725389163685481e+00  -8.2708093279590962e+00  -8.2603037894757261e+00  -8.2410195706828873e+00  -8.2134658508401355e+00  -8.1784228697235548e+00  -8.1368700666818370e+00  -8.0899439911009949e+00  -8.0389021033702885e+00  -7.9850889715587829e+00  -7.9299045798998735e+00  -7.8747744143657519e+00  -7.8211205045720149e+00  -7.7703323102111863e+00  -7.7237363878280583e+00  -7.6825641399322002e+00  -7.6479174243068524e+00  -7.6207315924512020e+00  -7.6017314328456340e+00  -7.5913531818041218e+00  -7.5894904041983891e+00  -8.3101762521402964e+00  -8.3082423303609367e+00  -8.2965528814055904e+00  -8.2751166902834168e+00  -8.2445152970189532e+00  -8.2056312349386502e+00  -8.1595644073638240e+00  -8.1075823049520661e+00  -8.0510782143023345e+00  -7.9915338562984761e+00  -7.9304860617353476e+00  -7.8694967003578125e+00  -7.8101243136955052e+00  -7.7538954726438956e+00  -7.7022739464298429e+00  -7.6566263093633440e+00  -7.6181833951613704e+00  -7.5879971392932664e+00  -7.5668882208472059e+00  -7.5553554661974118e+00  -7.5532901243979014e+00  -8.3508908749433868e+00  -8.3487295177509377e+00  -8.3357383003281900e+00  -8.3119441715718754e+00  -8.2780160148244288e+00  -8.2349565780407161e+00  -8.1840037381821098e+00  -8.1265706599544281e+00  -8.0641971452476771e+00  -7.9985085944768786e+00  -7.9311819331830833e+00  -7.8639169803135918e+00  -7.7984106126701187e+00  -7.7363304835271638e+00  -7.6792851400553124e+00  -7.6287881354216527e+00  -7.5862149161027457e+00  -7.5527519030834904e+00  -7.5293332327663771e+00  -7.5165340835036822e+00  -7.5142482143082798e+00  -8.3944949656347543e+00  -8.3920815087357052e+00  -8.3776652120878623e+00  -8.3513010192824026e+00  -8.3137650101818661e+00  -8.2662030384445870e+00  -8.2100121580057746e+00  -8.1467674452873133e+00  -8.0781648981194891e+00  -8.0059768152356146e+00  -7.9320184682548431e+00  -7.8581233554056489e+00  -7.7861227935754149e+00  -7.7178248324196588e+00  -7.6549875801155833e+00  -7.5992830061825991e+00  -7.5522489493886003e+00  -7.5152284049856179e+00  -7.4892917172013096e+00  -7.4751089050984616e+00  -7.4725838085480643e+00  -8.4406713681131968e+00  -8.4379791896711236e+00  -8.4220074404792822e+00  -8.3928538300107931e+00  -8.3514288619201018e+00  -8.2990516771845435e+00  -8.2373048606396946e+00  -8.1679434337180634e+00  -8.0928274244625200e+00  -8.0138742161850285e+00  -7.9330283831915249e+00  -7.8522444357739865e+00  -7.7734759835793135e+00  -7.6986639224655713e+00  -7.6297163621948352e+00  -7.5684741554255393e+00  -7.5166580231862383e+00  -7.4757955132046519e+00  -7.4471235518525614e+00  -7.4314326406067224e+00  -7.4286485181017277e+00  -8.4889335170791949e+00  -8.4859333632431966e+00  -8.4682656793253415e+00  -8.4360934448247598e+00  -8.3905000340136162e+00  -8.3330187149548056e+00  -8.2654510176878286e+00  -8.1897519004530004e+00  -8.1079500558937454e+00  -8.0220986921185062e+00  -7.9342523251869785e+00  -7.8464621310923537e+00  -7.7607803489796598e+00  -7.6792633545150997e+00  -7.6039631058656099e+00  -7.5368977645947943e+00  -7.4799946798163175e+00  -7.4350021085235323e+00  -7.4033651321462184e+00  -7.3860312550410363e+00  -7.3829665264662436e+00  -8.5385769463024275e+00  -8.5352357464217530e+00  -8.5157160041159514e+00  -8.4802807596993190e+00  -8.4302418762875870e+00  -8.3674030342766805e+00  -8.2938274638106542e+00  -8.2116916987306219e+00  -8.1231922970492114e+00  -8.0304982605013713e+00  -7.9357405709713911e+00  -7.8410270947727190e+00  -7.7484695587142305e+00  -7.6602088357946787e+00  -7.5784247597809333e+00  -7.5053172503161383e+00  -7.4430474929822141e+00  -7.3936316740601091e+00  -7.3587809785942175e+00  -7.3396531030065866e+00  -7.3362831895572684e+00  -8.5886204070320709e+00  -8.5848991737515998e+00  -8.5633459307528756e+00  -8.5243785018494247e+00  -8.4696192933800685e+00  -8.4012206920561159e+00  -8.3215619397502696e+00  -8.2330628955210159e+00  -8.1380780302249338e+00  -8.0388568679628580e+00  -7.9375548261739945e+00  -7.8362765694662624e+00  -7.7371343241233630e+00  -7.6423042468516904e+00  -7.5540636929212637e+00  -7.4747913104833170e+00  -7.4069119237422765e+00  -7.3527711304047711e+00  -7.3144278864468868e+00  -7.2933290496702465e+00  -7.2896242877629058e+00  -8.6377337570819659e+00  -8.6335838356018026e+00  -8.6097738665816781e+00  -8.5669643879282251e+00  -8.5072112940554572e+00  -8.4331243798616935e+00  -8.3474656710769342e+00  -8.2529159708065407e+00  -8.1519624209137334e+00  -8.0468788144376386e+00  -7.9397698670838048e+00  -7.8326534674235750e+00  -7.7275595381907447e+00  -7.6266270098525784e+00  -7.5321797518954208e+00  -7.4467584005577976e+00  -7.3730803270809577e+00  -7.3138987855035955e+00  -7.2717359028193114e+00  -7.2484469731064731e+00  -7.2443691208509229e+00  -8.6841481466558808e+00  -8.6795043989294278e+00  -8.6531451676074926e+00  -8.6061187835614934e+00  -8.5411008581140315e+00  -8.4613069028351422e+00  -8.3699575821952426e+00  -8.2699985224582395e+00  -8.1639992268619945e+00  -8.0541737632665544e+00  -7.9424745106123140e+00  -7.8307238205255487e+00  -7.7207608025129080e+00  -7.6145869004818074e+00  -7.5144927111157926e+00  -7.4231397147320282e+00  -7.3435567704965168e+00  -7.2789989133392758e+00  -7.2326131412023980e+00  -7.2068461694128763e+00  -7.2023426036834675e+00  -8.7255408801553518e+00  -8.7203088627075793e+00  -8.6909929109611337e+00  -8.6392762393550662e+00  -8.5687373317628577e+00  -8.4833911113500573e+00  -8.3869878589881477e+00  -8.2827089739821407e+00  -8.1731164486275514e+00  -8.0602463932951292e+00  -7.9457710026253991e+00  -7.8311868810781906e+00  -7.7180112555438116e+00  -7.6079785900083907e+00  -7.5032284207855140e+00  -7.4064603231795614e+00  -7.3210037663790075e+00  -7.2507150517145629e+00  -7.1995867164157650e+00  -7.1709413470019996e+00  -7.1659353546062174e+00  -8.7588811671877043e+00  -8.7529115350746327e+00  -8.7200413582661103e+00  -8.6630246061288378e+00  -8.5867687279543947e+00  -8.4963171029751638e+00  -8.3959792526974582e+00  -8.2890763753101790e+00  -8.1780149387299215e+00  -8.0644978915513246e+00  -7.9497713895901310e+00  -7.8348678953870472e+00  -7.7208417394010747e+00  -7.6090076463011282e+00  -7.5011912171068307e+00  -7.3999811634477046e+00  -7.3089284157867027e+00  -7.2325619275606936e+00  -7.1760026667963288e+00  -7.1438943894445579e+00  -7.1382685184653942e+00  -8.7802106724788160e+00  -8.7732433663062448e+00  -8.7359098338096572e+00  -8.6728287814073521e+00  -8.5908513066721159e+00  -8.4962566729425699e+00  -8.3938240322308264e+00  -8.2868002682266795e+00  -8.1772136833320150e+00  -8.0662504553057115e+00  -7.9545889179250944e+00  -7.8426782760238405e+00  -7.7309862246377916e+00  -7.6202523098246555e+00  -7.5117839021776378e+00  -7.4078166714511386e+00  -7.3119105731412732e+00  -7.2292284599420000e+00  -7.1663297997499580e+00  -7.1298703894342594e+00  -7.1234365508644144e+00  -8.7843075219878184e+00  -8.7758358769487916e+00  -8.7326355711256713e+00  -8.6626565017739150e+00  -8.5754763094498347e+00  -8.4786256743442632e+00  -8.3770067533089740e+00  -8.2734040513444604e+00  -8.1691748389116636e+00  -8.0648093798592555e+00  -7.9603223275897674e+00  -7.8555235264846033e+00  -7.7502322490823659e+00  -7.6444984650981862e+00  -7.5388974844173502e+00  -7.4349691311695283e+00  -7.3358509130462988e+00  -7.2470201719726326e+00  -7.1766601887242407e+00  -7.1344574135275662e+00  -7.1268989873008355e+00  -8.7641256615771574e+00  -8.7530299926070576e+00  -8.7018691209400227e+00  -8.6245256320080657e+00  -8.5339440609823125e+00  -8.4383430013844301e+00  -8.3419675213015374e+00  -8.2465721526625835e+00  -8.1525442539830770e+00  -8.0595763599914960e+00  -7.9670314369587452e+00  -7.8741405137632743e+00  -7.7801309056953025e+00  -7.6843595783913985e+00  -7.5865305982578928e+00  -7.4871116095918318e+00  -7.3881250756104917e+00  -7.2944847288141865e+00  -7.2156049749640019e+00  -7.1654424582256544e+00  -7.1561891981670023e+00  -8.7097251879596538e+00  -8.6932575994537888e+00  -8.6315524814676259e+00  -8.5481955323737786e+00  -8.4588330844894717e+00  -8.3706082185319506e+00  -8.2858570797720645e+00  -8.2047330500463520e+00  -8.1265235112923992e+00  -8.0502144606171626e+00  -7.9747027010828999e+00  -7.8988591879009018e+00  -7.8215391576929161e+00  -7.7415925809948840e+00  -7.6579313089191094e+00  -7.5697623178330078e+00  -7.4772403260397988e+00  -7.3830943674527498e+00  -7.2959903168448603e+00  -7.2344828172717879e+00  -7.2223980438085285e+00  -8.6055936977577527e+00  -8.5769995169123536e+00  -8.5042393629825401e+00  -8.4219163663330576e+00  -8.3437276155346112e+00  -8.2725776724593914e+00  -8.2077880718455436e+00  -8.1478653674186976e+00  -8.0913191872264925e+00  -8.0368247169853273e+00  -7.9831954568248680e+00  -7.9293093166231330e+00  -7.8740247911065300e+00  -7.8160931813153045e+00  -7.7540714947732292e+00  -7.6862702720867855e+00  -7.6108897001701123e+00  -7.5269179299807369e+00  -7.4377368313853296e+00  -7.3614946841161730e+00  -7.3438893603811444e+00  -8.4203831344552498e+00  -8.3677108027499258e+00  -8.2976340032737657e+00  -8.2368838178593631e+00  -8.1873700136756948e+00  -8.1460999473465527e+00  -8.1103566879951128e+00  -8.0782403865058097e+00  -8.0484373408517715e+00  -8.0199826018003861e+00  -7.9920984939374975e+00  -7.9640842886308292e+00  -7.9352276591990210e+00  -7.9047130058796755e+00  -7.8714992306640710e+00  -7.8341263131636243e+00  -7.7903899687941109e+00  -7.7368732787365380e+00  -7.6690156891561392e+00  -7.5878825878204568e+00  -7.5586080414483439e+00  -8.0000000000000000e+00  -8.0000000000000000e+00  -8.0000000000000000e+00  -8.0000000000000000e+00  -8.0000000000000000e+00  -8.0000000000000000e+00  -8.0000000000000000e+00  -8.0000000000000000e+00  -8.0000000000000000e+00  -8.0000000000000000e+00  -8.0000000000000000e+00  -8.0000000000000000e+00  -8.0000000000000000e+00  -8.0000000000000000e+00  -8.0000000000000000e+00  -8.0000000000000000e+00  -8.0000000000000000e+00  -8.0000000000000000e+00  -8.0000000000000000e+00  -8.0000000000000000e+00  -8.0000000000000000e+00  </DataArray> 
</PointData> 
</Piece>
</UnstructuredGrid>
</VTKFile>