<?xml version="1.0"?>
<VTKFile type="UnstructuredGrid"  version="0.1"  >
<UnstructuredGrid>
<Piece  NumberOfPoints="651" NumberOfCells="1200">
<Points>
<DataArray  type="Float64"  NumberOfComponents="3"  format="ascii">0 0 0  50000 0 0  100000 0 0  150000 0 0  200000 0 0  250000 0 0  300000 0 0  350000 0 0  400000 0 0  450000 0 0  500000 0 0  550000 0 0  600000 0 0  650000 0 0  700000 0 0  750000 0 0  800000 0 0  850000 0 0  900000 0 0  950000 0 0  1000000 0 0  0 50000 0  50000 50000 0  100000 50000 0  150000 50000 0  200000 50000 0  250000 50000 0  300000 50000 0  350000 50000 0  400000 50000 0  450000 50000 0  500000 50000 0  550000 50000 0  600000 50000 0  650000 50000 0  700000 50000 0  750000 50000 0  800000 50000 0  850000 50000 0  900000 50000 0  950000 50000 0  1000000 50000 0  0 100000 0  50000 100000 0  100000 100000 0  150000 100000 0  200000 100000 0  250000 100000 0  300000 100000 0  350000 100000 0  400000 100000 0  450000 100000 0  500000 100000 0  550000 100000 0  600000 100000 0  650000 100000 0  700000 100000 0  750000 100000 0  800000 100000 0  850000 100000 0  900000 100000 0  950000 100000 0  1000000 100000 0  0 150000 0  50000 150000 0  100000 150000 0  150000 150000 0  200000 150000 0  250000 150000 0  300000 150000 0  350000 150000 0  400000 150000 0  450000 150000 0  500000 150000 0  550000 150000 0  600000 150000 0  650000 150000 0  700000 150000 0  750000 150000 0  800000 150000 0  850000 150000 0  900000 150000 0  950000 150000 0  1000000 150000 0  0 200000 0  50000 200000 0  100000 200000 0  150000 200000 0  200000 200000 0  250000 200000 0  300000 200000 0  350000 200000 0  400000 200000 0  450000 200000 0  500000 200000 0  550000 200000 0  600000 200000 0  650000 200000 0  700000 200000 0  750000 200000 0  800000 200000 0  850000 200000 0  900000 200000 0  950000 200000 0  1000000 200000 0  0 250000 0  50000 250000 0  100000 250000 0  150000 250000 0  200000 250000 0  250000 250000 0  300000 250000 0  350000 250000 0  400000 250000 0  450000 250000 0  500000 250000 0  550000 250000 0  600000 250000 0  650000 250000 0  700000 250000 0  750000 250000 0  800000 250000 0  850000 250000 0  900000 250000 0  950000 250000 0  1000000 250000 0  0 300000 0  50000 300000 0  100000 300000 0  150000 300000 0  200000 300000 0  250000 300000 0  300000 300000 0  350000 300000 0  400000 300000 0  450000 300000 0  500000 300000 0  550000 300000 0  600000 300000 0  650000 300000 0  700000 300000 0  750000 300000 0  800000 300000 0  850000 300000 0  900000 300000 0  950000 300000 0  1000000 300000 0  0 350000 0  50000 350000 0  100000 350000 0  150000 350000 0  200000 350000 0  250000 350000 0  300000 350000 0  350000 350000 0  400000 350000 0  450000 350000 0  500000 350000 0  550000 350000 0  600000 350000 0  650000 350000 0  700000 350000 0  750000 350000 0  800000 350000 0  850000 350000 0  900000 350000 0  950000 350000 0  1000000 350000 0  0 400000 0  50000 400000 0  100000 400000 0  150000 400000 0  200000 400000 0  250000 400000 0  300000 400000 0  350000 400000 0  400000 400000 0  450000 400000 0  500000 400000 0  550000 400000 0  600000 400000 0  650000 400000 0  700000 400000 0  750000 400000 0  800000 400000 0  850000 400000 0  900000 400000 0  950000 400000 0  1000000 400000 0  0 450000 0  50000 450000 0  100000 450000 0  150000 450000 0  200000 450000 0  250000 450000 0  300000 450000 0  350000 450000 0  400000 450000 0  450000 450000 0  500000 450000 0  550000 450000 0  600000 450000 0  650000 450000 0  700000 450000 0  750000 450000 0  800000 450000 0  850000 450000 0  900000 450000 0  950000 450000 0  1000000 450000 0  0 500000 0  50000 500000 0  100000 500000 0  150000 500000 0  200000 500000 0  250000 500000 0  300000 500000 0  350000 500000 0  400000 500000 0  450000 500000 0  500000 500000 0  550000 500000 0  600000 500000 0  650000 500000 0  700000 500000 0  750000 500000 0  800000 500000 0  850000 500000 0  900000 500000 0  950000 500000 0  1000000 500000 0  0 550000 0  50000 550000 0  100000 550000 0  150000 550000 0  200000 550000 0  250000 550000 0  300000 550000 0  350000 550000 0  400000 550000 0  450000 550000 0  500000 550000 0  550000 550000 0  600000 550000 0  650000 550000 0  700000 550000 0  750000 550000 0  800000 550000 0  850000 550000 0  900000 550000 0  950000 550000 0  1000000 550000 0  0 600000 0  50000 600000 0  100000 600000 0  150000 600000 0  200000 600000 0  250000 600000 0  300000 600000 0  350000 600000 0  400000 600000 0  450000 600000 0  500000 600000 0  550000 600000 0  600000 600000 0  650000 600000 0  700000 600000 0  750000 600000 0  800000 600000 0  850000 600000 0  900000 600000 0  950000 600000 0  1000000 600000 0  0 650000 0  50000 650000 0  100000 650000 0  150000 650000 0  200000 650000 0  250000 650000 0  300000 650000 0  350000 650000 0  400000 650000 0  450000 650000 0  500000 650000 0  550000 650000 0  600000 650000 0  650000 650000 0  700000 650000 0  750000 650000 0  800000 650000 0  850000 650000 0  900000 650000 0  950000 650000 0  1000000 650000 0  0 700000 0  50000 700000 0  100000 700000 0  150000 700000 0  200000 700000 0  250000 700000 0  300000 700000 0  350000 700000 0  400000 700000 0  450000 700000 0  500000 700000 0  550000 700000 0  600000 700000 0  650000 700000 0  700000 700000 0  750000 700000 0  800000 700000 0  850000 700000 0  900000 700000 0  950000 700000 0  1000000 700000 0  0 750000 0  50000 750000 0  100000 750000 0  150000 750000 0  200000 750000 0  250000 750000 0  300000 750000 0  350000 750000 0  400000 750000 0  450000 750000 0  500000 750000 0  550000 750000 0  600000 750000 0  650000 750000 0  700000 750000 0  750000 750000 0  800000 750000 0  850000 750000 0  900000 750000 0  950000 750000 0  1000000 750000 0  0 800000 0  50000 800000 0  100000 800000 0  150000 800000 0  200000 800000 0  250000 800000 0  300000 800000 0  350000 800000 0  400000 800000 0  450000 800000 0  500000 800000 0  550000 800000 0  600000 800000 0  650000 800000 0  700000 800000 0  750000 800000 0  800000 800000 0  850000 800000 0  900000 800000 0  950000 800000 0  1000000 800000 0  0 850000 0  50000 850000 0  100000 850000 0  150000 850000 0  200000 850000 0  250000 850000 0  300000 850000 0  350000 850000 0  400000 850000 0  450000 850000 0  500000 850000 0  550000 850000 0  600000 850000 0  650000 850000 0  700000 850000 0  750000 850000 0  800000 850000 0  850000 850000 0  900000 850000 0  950000 850000 0  1000000 850000 0  0 900000 0  50000 900000 0  100000 900000 0  150000 900000 0  200000 900000 0  250000 900000 0  300000 900000 0  350000 900000 0  400000 900000 0  450000 900000 0  500000 900000 0  550000 900000 0  600000 900000 0  650000 900000 0  700000 900000 0  750000 900000 0  800000 900000 0  850000 900000 0  900000 900000 0  950000 900000 0  1000000 900000 0  0 950000 0  50000 950000 0  100000 950000 0  150000 950000 0  200000 950000 0  250000 950000 0  300000 950000 0  350000 950000 0  400000 950000 0  450000 950000 0  500000 950000 0  550000 950000 0  600000 950000 0  650000 950000 0  700000 950000 0  750000 950000 0  800000 950000 0  850000 950000 0  900000 950000 0  950000 950000 0  1000000 950000 0  0 1000000 0  50000 1000000 0  100000 1000000 0  150000 1000000 0  200000 1000000 0  250000 1000000 0  300000 1000000 0  350000 1000000 0  400000 1000000 0  450000 1000000 0  500000 1000000 0  550000 1000000 0  600000 1000000 0  650000 1000000 0  700000 1000000 0  750000 1000000 0  800000 1000000 0  850000 1000000 0  900000 1000000 0  950000 1000000 0  1000000 1000000 0  0 1050000 0  50000 1050000 0  100000 1050000 0  150000 1050000 0  200000 1050000 0  250000 1050000 0  300000 1050000 0  350000 1050000 0  400000 1050000 0  450000 1050000 0  500000 1050000 0  550000 1050000 0  600000 1050000 0  650000 1050000 0  700000 1050000 0  750000 1050000 0  800000 1050000 0  850000 1050000 0  900000 1050000 0  950000 1050000 0  1000000 1050000 0  0 1100000 0  50000 1100000 0  100000 1100000 0  150000 1100000 0  200000 1100000 0  250000 1100000 0  300000 1100000 0  350000 1100000 0  400000 1100000 0  450000 1100000 0  500000 1100000 0  550000 1100000 0  600000 1100000 0  650000 1100000 0  700000 1100000 0  750000 1100000 0  800000 1100000 0  850000 1100000 0  900000 1100000 0  950000 1100000 0  1000000 1100000 0  0 1150000 0  50000 1150000 0  100000 1150000 0  150000 1150000 0  200000 1150000 0  250000 1150000 0  300000 1150000 0  350000 1150000 0  400000 1150000 0  450000 1150000 0  500000 1150000 0  550000 1150000 0  600000 1150000 0  650000 1150000 0  700000 1150000 0  750000 1150000 0  800000 1150000 0  850000 1150000 0  900000 1150000 0  950000 1150000 0  1000000 1150000 0  0 1200000 0  50000 1200000 0  100000 1200000 0  150000 1200000 0  200000 1200000 0  250000 1200000 0  300000 1200000 0  350000 1200000 0  400000 1200000 0  450000 1200000 0  500000 1200000 0  550000 1200000 0  600000 1200000 0  650000 1200000 0  700000 1200000 0  750000 1200000 0  800000 1200000 0  850000 1200000 0  900000 1200000 0  950000 1200000 0  1000000 1200000 0  0 1250000 0  50000 1250000 0  100000 1250000 0  150000 1250000 0  200000 1250000 0  250000 1250000 0  300000 1250000 0  350000 1250000 0  400000 1250000 0  450000 1250000 0  500000 1250000 0  550000 1250000 0  600000 1250000 0  650000 1250000 0  700000 1250000 0  750000 1250000 0  800000 1250000 0  850000 1250000 0  900000 1250000 0  950000 1250000 0  1000000 1250000 0  0 1300000 0  50000 1300000 0  100000 1300000 0  150000 1300000 0  200000 1300000 0  250000 1300000 0  300000 1300000 0  350000 1300000 0  400000 1300000 0  450000 1300000 0  500000 1300000 0  550000 1300000 0  600000 1300000 0  650000 1300000 0  700000 1300000 0  750000 1300000 0  800000 1300000 0  850000 1300000 0  900000 1300000 0  950000 1300000 0  1000000 1300000 0  0 1350000 0  50000 1350000 0  100000 1350000 0  150000 1350000 0  200000 1350000 0  250000 1350000 0  300000 1350000 0  350000 1350000 0  400000 1350000 0  450000 1350000 0  500000 1350000 0  550000 1350000 0  600000 1350000 0  650000 1350000 0  700000 135
[...]
<PointData  Scalars="f_21"> 
<DataArray  type="Float64"  Name="f_21"  format="ascii">-8.1563017648136906e+00  -8.1541173977546340e+00  -8.1433293844985304e+00  -8.1239054360138265e+00  -8.0963500374809776e+00  -8.0613969670927901e+00  -8.0199752527187282e+00  -7.9731827079077213e+00  -7.9222565110546643e+00  -7.8685402524145935e+00  -7.8134482747695664e+00  -7.7584282736466665e+00  -7.7049231303478747e+00  -7.6543329614347666e+00  -7.6079784058474491e+00  -7.5670663125615540e+00  -7.5326595296477574e+00  -7.5056541813940054e+00  -7.4867698466907058e+00  -7.4765143895048745e+00  -7.4743000791635197e+00  -8.1583719627235283e+00  -8.1562371578997350e+00  -8.1452946544866105e+00  -8.1257424909082214e+00  -8.0980445491699005e+00  -8.0629208717972460e+00  -8.0212971204429753e+00  -7.9742728007626322e+00  -7.9230893585498432e+00  -7.8690960916286699e+00  -7.8137139044564794e+00  -7.7583975282940116e+00  -7.7045970466572067e+00  -7.6537196422463731e+00  -7.6070925134324003e+00  -7.5659279166488318e+00  -7.5312911655675094e+00  -7.5040714010347589e+00  -7.4849493841495551e+00  -7.4743311390000393e+00  -7.4721168795002777e+00  -8.1685003049592098e+00  -8.1665162287291544e+00  -8.1553231155042401e+00  -8.1351812992105987e+00  -8.1066466962202952e+00  -8.0704762072349130e+00  -8.0276234366504582e+00  -7.9792174783508658e+00  -7.9265332936025210e+00  -7.8709572453097500e+00  -7.8139497709728669e+00  -7.7570064003202859e+00  -7.7016180837990538e+00  -7.6492317668160803e+00  -7.6012121717529109e+00  -7.5588058135063179e+00  -7.5231083749541732e+00  -7.4950365818409601e+00  -7.4753045853856053e+00  -7.4643943039744451e+00  -7.4624116396560485e+00  -8.1865579780521873e+00  -8.1845974140060367e+00  -8.1729858328347920e+00  -8.1518872052467586e+00  -8.1219141496232172e+00  -8.0838934810154459e+00  -8.0388423856020115e+00  -7.9879534026176406e+00  -7.9325681654574947e+00  -7.8741435529150845e+00  -7.8142135516699769e+00  -7.7543488343566818e+00  -7.6961154292552569e+00  -7.6410336307844213e+00  -7.5905382929721883e+00  -7.5459418045659570e+00  -7.5084013603048563e+00  -7.4788923092901864e+00  -7.4581866482983052e+00  -7.4468129318336427e+00  -7.4448292976399486e+00  -8.2122602143461094e+00  -8.2102444371190817e+00  -8.1979728695933431e+00  -8.1755259466267240e+00  -8.1435400106320994e+00  -8.1029130729185290e+00  -8.0547482968971380e+00  -8.0003309662313598e+00  -7.9411011474480429e+00  -7.8786191543753592e+00  -7.8145260742599287e+00  -7.7505015087882416e+00  -7.6882201571925979e+00  -7.6293085955709774e+00  -7.5753035662908701e+00  -7.5276132202780817e+00  -7.4874828946499559e+00  -7.4559663093897157e+00  -7.4338972746888157e+00  -7.4218262470794762e+00  -7.4197318567425921e+00  -8.2454434514594368e+00  -8.2433135256464034e+00  -8.2301308560471877e+00  -8.2059202781783611e+00  -8.1713420649778516e+00  -8.1273675498872873e+00  -8.0752007562161179e+00  -8.0162435950856104e+00  -7.9520632251355678e+00  -7.8843544804334877e+00  -7.8148978283535921e+00  -7.7455145053713439e+00  -7.6780203978722765e+00  -7.6141800634545156e+00  -7.5556622381569367e+00  -7.5039982059059627e+00  -7.4605442372325248e+00  -7.4264477929950434e+00  -7.4026096852408800e+00  -7.3896010795456730e+00  -7.3873363808332106e+00  -8.2860565432166791e+00  -8.2837623737193660e+00  -8.2694197896712467e+00  -8.2430193521068595e+00  -8.2052583979951343e+00  -8.1571920762613317e+00  -8.1001406681808774e+00  -8.0356444407159948e+00  -7.9654240675970911e+00  -7.8913382016859046e+00  -7.8153375319437739e+00  -7.7394163784938135e+00  -7.6655631266154600e+00  -7.5957107590539721e+00  -7.5316887124233638e+00  -7.4751772426255556e+00  -7.4276651173117729e+00  -7.3904095534494276e+00  -7.3643891812393321e+00  -7.3502061010224367e+00  -7.3477263817503564e+00  -8.3341376680789701e+00  -8.3316328852980686e+00  -8.3158837931112153e+00  -8.2868605691484856e+00  -8.2453146062204397e+00  -8.1924011356656923e+00  -8.1295751152295583e+00  -8.0585373623249250e+00  -7.9811877603033032e+00  -7.8995769588800702e+00  -7.8158555066710766e+00  -7.7322210704955037e+00  -7.6508647250230730e+00  -7.5739173155476074e+00  -7.5033968895220280e+00  -7.4411581502991622e+00  -7.3888444897547600e+00  -7.3478411813448554e+00  -7.3192198596447122e+00  -7.3036275617795932e+00  -7.3008924978518372e+00  -8.3897887072629906e+00  -8.3870281528871171e+00  -8.3696252661146495e+00  -8.3375390174110180e+00  -8.2915927078910130e+00  -8.2330612949984516e+00  -8.1635558210697958e+00  -8.0849613971422940e+00  -7.9993831139179363e+00  -7.9090913085947658e+00  -7.8164651150104456e+00  -7.7239347371822964e+00  -7.6339231132890699e+00  -7.5487876304687296e+00  -7.4707625681644174e+00  -7.4019029730317296e+00  -7.3440303738090993e+00  -7.2986788401544915e+00  -7.2670310471225879e+00  -7.2497940061582788e+00  -7.2467645051271479e+00  -8.4531478136973739e+00  -8.4500861399384100e+00  -8.4307785246837170e+00  -8.3951795708315728e+00  -8.3442027586479259e+00  -8.2792647442470955e+00  -8.2021566540488919e+00  -8.1149734554417989e+00  -8.0200521913847780e+00  -7.9199103841300129e+00  -7.8171836413754576e+00  -7.7145627578713416e+00  -7.6147306212616375e+00  -7.5202991295872890e+00  -7.4337463662055860e+00  -7.3573544283738039e+00  -7.2931482089078701e+00  -7.2428336621155402e+00  -7.2077247108772742e+00  -7.1886039554482482e+00  -7.1852409780878608e+00  -8.5243591466130830e+00  -8.5209499226250749e+00  -8.4994806599615043e+00  -8.4599077523339297e+00  -8.4032541190176957e+00  -8.3311023410377807e+00  -8.2454501232744732e+00  -8.1486297160796699e+00  -8.0432376552915112e+00  -7.9320658481534689e+00  -7.8180331297885308e+00  -7.7041173813318640e+00  -7.5932880224777195e+00  -7.4884384402962212e+00  -7.3923179760018929e+00  -7.3074634236854488e+00  -7.2361301867360721e+00  -7.1802216733034294e+00  -7.1412055158804719e+00  -7.1199565585475693e+00  -7.1162205707819526e+00  -8.6035383962933789e+00  -8.5997334755525099e+00  -8.5758379628668209e+00  -8.5318167832702354e+00  -8.4688235609725027e+00  -8.3886338783742662e+00  -8.2934813208369871e+00  -8.1859647921874892e+00  -8.0689684643825625e+00  -7.9455850287003349e+00  -7.8190413915551691e+00  -7.6926265342277569e+00  -7.5696205852126148e+00  -7.4532236979876219e+00  -7.3464834137952497e+00  -7.2522197713720278e+00  -7.1729480220449471e+00  -7.1107975693615257e+00  -7.0674151461422330e+00  -7.0437864557024232e+00  -7.0396371463211818e+00  -8.6907325353717475e+00  -8.6864815632549170e+00  -8.6598862923717341e+00  -8.6109287033835127e+00  -8.5409177908339231e+00  -8.4518532309389656e+00  -8.3462373417911859e+00  -8.2269672021998996e+00  -8.0972429866794879e+00  -7.9604828349963643e+00  -7.8202432990644306e+00  -7.6801444151694547e+00  -7.5437972512053122e+00  -7.4147310515206275e+00  -7.2963172248864945e+00  -7.1916883402294234e+00  -7.1036514566467481e+00  -7.0345944061027854e+00  -6.9863725719728693e+00  -6.9601044134452836e+00  -6.9555005362450792e+00  -8.7858720411067015e+00  -8.7811220184381664e+00  -8.7515435582808312e+00  -8.6971474291823849e+00  -8.6194279945149948e+00  -8.5206459492985793e+00  -8.4036099801808888e+00  -8.2715493807114573e+00  -8.1280083286599183e+00  -7.9767518844846901e+00  -7.8216824525478721e+00  -7.6667646055649374e+00  -7.5159542717367573e+00  -7.3731272090589650e+00  -7.2420018608273660e+00  -7.1260530440541476e+00  -7.0284148584240924e+00  -6.9517713373641410e+00  -6.8982221262651180e+00  -6.8690454874089335e+00  -6.8639447303304149e+00  -8.8887136151355559e+00  -8.8834084277666481e+00  -8.8505521872491766e+00  -8.7902013407103041e+00  -8.7040737501784040e+00  -8.5947365956079000e+00  -8.4653492044054364e+00  -8.3195101830166980e+00  -8.1611344598836748e+00  -7.9943501493761504e+00  -7.8234133002839492e+00  -7.6526365428326173e+00  -7.4863248541852769e+00  -7.3287101688109644e+00  -7.1838767835887776e+00  -7.0556713983187898e+00  -6.9475945773035530e+00  -6.8626718158233926e+00  -6.8032915286701172e+00  -6.7709266971308475e+00  -6.7652854704281289e+00  -8.9987711673707746e+00  -8.9928509541737469e+00  -8.9564090536778256e+00  -8.8895725261376253e+00  -8.7943331681532690e+00  -8.6736226525751015e+00  -8.5310045171348730e+00  -8.3704875295229844e+00  -8.1963815063461425e+00  -8.0131853269344582e+00  -7.8255037903570628e+00  -7.6379863069628806e+00  -7.4552765954229301e+00  -7.2819606227348128e+00  -7.1225002974951357e+00  -6.9811428815690038e+00  -6.8618002298038210e+00  -6.7678951336475874e+00  -6.7021623740685579e+00  -6.6663164859906594e+00  -6.6600894796439718e+00  -9.1152325000513788e+00  -9.1086326557031452e+00  -9.0682798402016243e+00  -8.9944091570042808e+00  -8.8893554211743293e+00  -8.7564912197738352e+00  -8.5998508454736626e+00  -8.4238985495026615e+00  -8.2333584354647957e+00  -8.0330950716395844e+00  -7.8280386193530429e+00  -7.6231427225996784e+00  -7.4233586408547190e+00  -7.2336068507104860e+00  -7.0587276307733049e+00  -6.9033950141884635e+00  -6.7719838166903887e+00  -6.6683848488890121e+00  -6.5957561258325494e+00  -6.5561186287596840e+00  -6.5492579151015153e+00  -9.2368586667559320e+00  -9.2295081408092852e+00  -9.1848940478349288e+00  -9.1034165297325202e+00  -8.9878508922218288e+00  -8.8421139893341039e+00  -8.6707952055263711e+00  -8.4788644668655557e+00  -8.2714713901757460e+00  -8.0538222659283676e+00  -7.8311231017452805e+00  -7.6085696769776821e+00  -7.3913604620509101e+00  -7.1847060906487146e+00  -6.9938092865940895e+00  -6.8237918934924213e+00  -6.6795515897971267e+00  -6.5655386188985734e+00  -6.4854394258285151e+00  -6.4416738177876427e+00  -6.4341271568845908e+00  -9.3618622671094371e+00  -9.3536805842937678e+00  -9.3044157107700176e+00  -9.2147209179358356e+00  -9.0879529384851221e+00  -8.9287152823320852e+00  -8.7422602979963369e+00  -8.5341178336052366e+00  -8.3098604120281738e+00  -8.0749847857587262e+00  -7.8348875835872986e+00  -7.5949051110952004e+00  -7.3603835987495714e+00  -7.1367450681900850e+00  -6.9295139359023734e+00  -6.7442708367242501e+00  -6.5865049748074265e+00  -6.4613454413360554e+00  -6.3731537526523363e+00  -6.3248830651733954e+00  -6.3165908840215774e+00  -9.4877597263816895e+00  -9.4786517261442089e+00  -9.4242829050813199e+00  -9.3256982172400757e+00  -9.1870436910747184e+00  -9.0138075039680619e+00  -8.8120419386098927e+00  -8.5878911468702288e+00  -8.3473247008976728e+00  -8.0960399810722894e+00  -7.8394921173938714e+00  -7.5830060272542035e+00  -7.3319261276165903e+00  -7.0917610027046676e+00  -6.8682796611968744e+00  -6.6675135989337786e+00  -6.4956187760734583e+00  -6.3585586555561369e+00  -6.2615765205592604e+00  -6.2083586157536654e+00  -6.1992488321806247e+00  -9.6111904185497945e+00  -9.6010368983237804e+00  -9.5410056163818826e+00  -9.4327558690652484e+00  -9.2815343958741732e+00  -9.0939888836060874e+00  -8.8771398307243619e+00  -8.6377894345167867e+00  -8.3822396945164677e+00  -8.1162457350551147e+00  -7.8451307285422738e+00  -7.5739965347512497e+00  -7.3079760868560735e+00  -7.0524808812502577e+00  -6.8133952256826564e+00  -6.5971588732613728e+00  -6.4106675139654365e+00  -6.2609169583388882e+00  -6.1543243909598475e+00  -6.0956108947512968e+00  -6.0855902523518184e+00  -9.7276913758542616e+00  -9.7163321497277977e+00  -9.6499049193575583e+00  -9.5310507876823305e+00  -9.3665888866047862e+00  -9.1647012681137294e+00  -8.9335675834951846e+00  -8.6806568278221423e+00  -8.4124753451192458e+00  -8.1346230660203585e+00  -7.8520339409304567e+00  -7.5693116458947571e+00  -7.2911031591701825e+00  -7.0224691970882001e+00  -6.7692073403696034e+00  -6.5380612656900849e+00  -6.3367141464732759e+00  -6.1734323556759021e+00  -6.0562164301714301e+00  -5.9912853637315697e+00  -5.9802250445544614e+00  -9.8314084134797124e+00  -9.8186105145607829e+00  -9.7447635940159554e+00  -9.6141166293999003e+00  -9.4357782832842556e+00  -9.2199542895858784e+00  -8.9761615834592092e+00  -8.7124611753850694e+00  -8.4353356544187861e+00  -8.1499304863124227e+00  -7.8604672039839967e+00  -7.5707222985493159e+00  -7.2845255755367972e+00  -7.0062595373645147e+00  -6.7413369545742992e+00  -6.4965958148752474e+00  -6.2804790640932326e+00  -6.1027755176742415e+00  -5.9736280316856307e+00  -5.9014736357990909e+00  -5.8891851970465234e+00  -9.9147090063948848e+00  -9.9001032260364603e+00  -9.8173328345728628e+00  -9.6733595515595479e+00  -9.4806606035766414e+00  -9.2520434798994948e+00  -8.9984353210165651e+00  -8.7282449621854230e+00  -8.4475563610856881e+00  -8.1606682308814911e+00  -7.8707214995246417e+00  -7.5803162851091956e+00  -7.2921092640088867e+00  -7.0094186953374207e+00  -6.7368604486513028e+00  -6.4809895840448704e+00  -6.2508082774344871e+00  -6.0578087517694774e+00  -5.9149931995486451e+00  -5.8341445663992131e+00  -5.8203386812188205e+00  -9.9676313829243224e+00  -9.9505735726567348e+00  -9.8565887966487171e+00  -9.6973650701855671e+00  -9.4903044249745658e+00  -9.2513383749034155e+00  -8.9925750359497503e+00  -8.7222283102861855e+00  -8.4454205739987884e+00  -8.1651404371159408e+00  -7.8830910508538583e+00  -7.6003963486100616e+00  -7.3182281164425875e+00  -7.0384478971092603e+00  -6.7643578296277695e+00  -6.5016166313012889e+00  -6.2592474993524370e+00  -6.0503485775508832e+00  -5.8915684736963039e+00  -5.7997871419544111e+00  -5.7839994717317138e+00  -9.9770411114425794e+00  -9.9562729005554846e+00  -9.8475342831188843e+00  -9.6709600405564249e+00  -9.4508580845163355e+00  -9.2063193969823374e+00  -8.9497538706386415e+00  -8.6881988115906079e+00  -8.4250756633658206e+00  -8.1616118826504138e+00  -7.8978325770175921e+00  -7.6332456461529752e+00  -7.3673834475594786e+00  -7.1003626284474288e+00  -6.8336308737664098e+00  -6.5710820635391674e+00  -6.3206666338481146e+00  -6.0962804592456958e+00  -5.9186925742279959e+00  -5.8124651498166253e+00  -5.7939125689055935e+00  -9.9252252926426969e+00  -9.8979536815749789e+00  -9.7691779869103996e+00  -9.5740808865989404e+00  -9.3454942359721525e+00  -9.1042391008189263e+00  -8.8610536651042739e+00  -8.6203651621693211e+00  -8.3831411452475599e+00  -8.1485933627533367e+00  -7.9151018574081622e+00  -7.6807139667724993e+00  -7.4434675443870493e+00  -7.2017274840481571e+00  -6.9547359642173019e+00  -6.7036689061363370e+00  -6.4536471791583905e+00  -6.2171379761157626e+00  -6.0180444515902032e+00  -5.8917684687719074e+00  -5.8690372385011651e+00  -9.7872176505852977e+00  -9.7465498390468603e+00  -9.5912175529621742e+00  -9.3810134696239356e+00  -9.1556079699578330e+00  -8.9330934843614713e+00  -8.7193749487736465e+00  -8.5148298334750852e+00  -8.3176469764598195e+00  -8.1252561757165456e+00  -7.9348639522630675e+00  -7.7436122451143561e+00  -7.5486024768108049e+00  -7.3469205404829845e+00  -7.1358055469964254e+00  -6.9132402150344729e+00  -6.6796076479248949e+00  -6.4418296782396132e+00  -6.2219284606535581e+00  -6.0670213741556394e+00  -6.0372823664957203e+00  -9.5241146057241295e+00  -9.4530196409373008e+00  -9.2698433363580754e+00  -9.0623135654470914e+00  -8.8651919113751045e+00  -8.6858574424302120e+00  -8.5225940941423772e+00  -8.3716195621097587e+00  -8.2291622651109098e+00  -8.0918725487160259e+00  -7.9567523135223848e+00  -7.8209666387039638e+00  -7.6816304884745987e+00  -7.5355853340924455e+00  -7.3791771352707372e+00  -7.2081224642787980e+00  -7.0178528486566272e+00  -6.8057984794664996e+00  -6.5805675140937527e+00  -6.3883556613196362e+00  -6.3448628125029014e+00  -9.0574800140401486e+00  -8.9255960480293020e+00  -8.7491670450896368e+00  -8.5960685399227703e+00  -8.4713128721161777e+00  -8.3673735985208815e+00  -8.2773830875763519e+00  -8.1965376327038086e+00  -8.1215185114556387e+00  -8.0498905501078308e+00  -7.9796925624447237e+00  -7.9091576984066085e+00  -7.8364891452476586e+00  -7.7596278423978964e+00  -7.6759424982429669e+00  -7.5817386037371630e+00  -7.4714325282485881e+00  -7.3363656432843198e+00  -7.1650002822747663e+00  -6.9601522181411006e+00  -6.8872513843443341e+00  -8.0000000000000000e+00  -8.0000000000000000e+00  -8.0000000000000000e+00  -8.0000000000000000e+00  -8.0000000000000000e+00  -8.0000000000000000e+00  -8.0000000000000000e+00  -8.0000000000000000e+00  -8.0000000000000000e+00  -8.0000000000000000e+00  -8.0000000000000000e+00  -8.0000000000000000e+00  -8.0000000000000000e+00  -8.0000000000000000e+00  -8.0000000000000000e+00  -8.0000000000000000e+00  -8.0000000000000000e+00  -8.0000000000000000e+00  -8.0000000000000000e+00  -8.0000000000000000e+00  -8.0000000000000000e+00  </DataArray> 
</PointData> 
</Piece>
</UnstructuredGrid>
</VTKFile>