<?xml version="1.0"?>
<VTKFile type="UnstructuredGrid"  version="0.1"  >
<UnstructuredGrid>
<Piece  NumberOfPoints="651" NumberOfCells="1200">
<Points>
<DataArray  type="Float64"  NumberOfComponents="3"  format="ascii">0 0 0  50000 0 0  100000 0 0  150000 0 0  200000 0 0  250000 0 0  300000 0 0  350000 0 0  400000 0 0  450000 0 0  500000 0 0  550000 0 0  600000 0 0  650000 0 0  700000 0 0  750000 0 0  800000 0 0  850000 0 0  900000 0 0  950000 0 0  1000000 0 0  0 50000 0  50000 50000 0  100000 50000 0  150000 50000 0  200000 50000 0  250000 50000 0  300000 50000 0  350000 50000 0  400000 50000 0  450000 50000 0  500000 50000 0  550000 50000 0  600000 50000 0  650000 50000 0  700000 50000 0  750000 50000 0  800000 50000 0  850000 50000 0  900000 50000 0  950000 50000 0  1000000 50000 0  0 100000 0  50000 100000 0  100000 100000 0  150000 100000 0  200000 100000 0  250000 100000 0  300000 100000 0  350000 100000 0  400000 100000 0  450000 100000 0  500000 100000 0  550000 100000 0  600000 100000 0  650000 100000 0  700000 100000 0  750000 100000 0  800000 100000 0  850000 100000 0  900000 100000 0  950000 100000 0  1000000 100000 0  0 150000 0  50000 150000 0  100000 150000 0  150000 150000 0  200000 150000 0  250000 150000 0  300000 150000 0  350000 150000 0  400000 150000 0  450000 150000 0  500000 150000 0  550000 150000 0  600000 150000 0  650000 150000 0  700000 150000 0  750000 150000 0  800000 150000 0  850000 150000 0  900000 150000 0  950000 150000 0  1000000 150000 0  0 200000 0  50000 200000 0  100000 200000 0  150000 200000 0  200000 200000 0  250000 200000 0  300000 200000 0  350000 200000 0  400000 200000 0  450000 200000 0  500000 200000 0  550000 200000 0  600000 200000 0  650000 200000 0  700000 200000 0  750000 200000 0  800000 200000 0  850000 200000 0  900000 200000 0  950000 200000 0  1000000 200000 0  0 250000 0  50000 250000 0  100000 250000 0  150000 250000 0  200000 250000 0  250000 250000 0  300000 250000 0  350000 250000 0  400000 250000 0  450000 250000 0  500000 250000 0  550000 250000 0  600000 250000 0  650000 250000 0  700000 250000 0  750000 250000 0  800000 250000 0  850000 250000 0  900000 250000 0  950000 250000 0  1000000 250000 0  0 300000 0  50000 300000 0  100000 300000 0  150000 300000 0  200000 300000 0  250000 300000 0  300000 300000 0  350000 300000 0  400000 300000 0  450000 300000 0  500000 300000 0  550000 300000 0  600000 300000 0  650000 300000 0  700000 300000 0  750000 300000 0  800000 300000 0  850000 300000 0  900000 300000 0  950000 300000 0  1000000 300000 0  0 350000 0  50000 350000 0  100000 350000 0  150000 350000 0  200000 350000 0  250000 350000 0  300000 350000 0  350000 350000 0  400000 350000 0  450000 350000 0  500000 350000 0  550000 350000 0  600000 350000 0  650000 350000 0  700000 350000 0  750000 350000 0  800000 350000 0  850000 350000 0  900000 350000 0  950000 350000 0  1000000 350000 0  0 400000 0  50000 400000 0  100000 400000 0  150000 400000 0  200000 400000 0  250000 400000 0  300000 400000 0  350000 400000 0  400000 400000 0  450000 400000 0  500000 400000 0  550000 400000 0  600000 400000 0  650000 400000 0  700000 400000 0  750000 400000 0  800000 400000 0  850000 400000 0  900000 400000 0  950000 400000 0  1000000 400000 0  0 450000 0  50000 450000 0  100000 450000 0  150000 450000 0  200000 450000 0  250000 450000 0  300000 450000 0  350000 450000 0  400000 450000 0  450000 450000 0  500000 450000 0  550000 450000 0  600000 450000 0  650000 450000 0  700000 450000 0  750000 450000 0  800000 450000 0  850000 450000 0  900000 450000 0  950000 450000 0  1000000 450000 0  0 500000 0  50000 500000 0  100000 500000 0  150000 500000 0  200000 500000 0  250000 500000 0  300000 500000 0  350000 500000 0  400000 500000 0  450000 500000 0  500000 500000 0  550000 500000 0  600000 500000 0  650000 500000 0  700000 500000 0  750000 500000 0  800000 500000 0  850000 500000 0  900000 500000 0  950000 500000 0  1000000 500000 0  0 550000 0  50000 550000 0  100000 550000 0  150000 550000 0  200000 550000 0  250000 550000 0  300000 550000 0  350000 550000 0  400000 550000 0  450000 550000 0  500000 550000 0  550000 550000 0  600000 550000 0  650000 550000 0  700000 550000 0  750000 550000 0  800000 550000 0  850000 550000 0  900000 550000 0  950000 550000 0  1000000 550000 0  0 600000 0  50000 600000 0  100000 600000 0  150000 600000 0  200000 600000 0  250000 600000 0  300000 600000 0  350000 600000 0  400000 600000 0  450000 600000 0  500000 600000 0  550000 600000 0  600000 600000 0  650000 600000 0  700000 600000 0  750000 600000 0  800000 600000 0  850000 600000 0  900000 600000 0  950000 600000 0  1000000 600000 0  0 650000 0  50000 650000 0  100000 650000 0  150000 650000 0  200000 650000 0  250000 650000 0  300000 650000 0  350000 650000 0  400000 650000 0  450000 650000 0  500000 650000 0  550000 650000 0  600000 650000 0  650000 650000 0  700000 650000 0  750000 650000 0  800000 650000 0  850000 650000 0  900000 650000 0  950000 650000 0  1000000 650000 0  0 700000 0  50000 700000 0  100000 700000 0  150000 700000 0  200000 700000 0  250000 700000 0  300000 700000 0  350000 700000 0  400000 700000 0  450000 700000 0  500000 700000 0  550000 700000 0  600000 700000 0  650000 700000 0  700000 700000 0  750000 700000 0  800000 700000 0  850000 700000 0  900000 700000 0  950000 700000 0  1000000 700000 0  0 750000 0  50000 750000 0  100000 750000 0  150000 750000 0  200000 750000 0  250000 750000 0  300000 750000 0  350000 750000 0  400000 750000 0  450000 750000 0  500000 750000 0  550000 750000 0  600000 750000 0  650000 750000 0  700000 750000 0  750000 750000 0  800000 750000 0  850000 750000 0  900000 750000 0  950000 750000 0  1000000 750000 0  0 800000 0  50000 800000 0  100000 800000 0  150000 800000 0  200000 800000 0  250000 800000 0  300000 800000 0  350000 800000 0  400000 800000 0  450000 800000 0  500000 800000 0  550000 800000 0  600000 800000 0  650000 800000 0  700000 800000 0  750000 800000 0  800000 800000 0  850000 800000 0  900000 800000 0  950000 800000 0  1000000 800000 0  0 850000 0  50000 850000 0  100000 850000 0  150000 850000 0  200000 850000 0  250000 850000 0  300000 850000 0  350000 850000 0  400000 850000 0  450000 850000 0  500000 850000 0  550000 850000 0  600000 850000 0  650000 850000 0  700000 850000 0  750000 850000 0  800000 850000 0  850000 850000 0  900000 850000 0  950000 850000 0  1000000 850000 0  0 900000 0  50000 900000 0  100000 900000 0  150000 900000 0  200000 900000 0  250000 900000 0  300000 900000 0  350000 900000 0  400000 900000 0  450000 900000 0  500000 900000 0  550000 900000 0  600000 900000 0  650000 900000 0  700000 900000 0  750000 900000 0  800000 900000 0  850000 900000 0  900000 900000 0  950000 900000 0  1000000 900000 0  0 950000 0  50000 950000 0  100000 950000 0  150000 950000 0  200000 950000 0  250000 950000 0  300000 950000 0  350000 950000 0  400000 950000 0  450000 950000 0  500000 950000 0  550000 950000 0  600000 950000 0  650000 950000 0  700000 950000 0  750000 950000 0  800000 950000 0  850000 950000 0  900000 950000 0  950000 950000 0  1000000 950000 0  0 1000000 0  50000 1000000 0  100000 1000000 0  150000 1000000 0  200000 1000000 0  250000 1000000 0  300000 1000000 0  350000 1000000 0  400000 1000000 0  450000 1000000 0  500000 1000000 0  550000 1000000 0  600000 1000000 0  650000 1000000 0  700000 1000000 0  750000 1000000 0  800000 1000000 0  850000 1000000 0  900000 1000000 0  950000 1000000 0  1000000 1000000 0  0 1050000 0  50000 1050000 0  100000 1050000 0  150000 1050000 0  200000 1050000 0  250000 1050000 0  300000 1050000 0  350000 1050000 0  400000 1050000 0  450000 1050000 0  500000 1050000 0  550000 1050000 0  600000 1050000 0  650000 1050000 0  700000 1050000 0  750000 1050000 0  800000 1050000 0  850000 1050000 0  900000 1050000 0  950000 1050000 0  1000000 1050000 0  0 1100000 0  50000 1100000 0  100000 1100000 0  150000 1100000 0  200000 1100000 0  250000 1100000 0  300000 1100000 0  350000 1100000 0  400000 1100000 0  450000 1100000 0  500000 1100000 0  550000 1100000 0  600000 1100000 0  650000 1100000 0  700000 1100000 0  750000 1100000 0  800000 1100000 0  850000 1100000 0  900000 1100000 0  950000 1100000 0  1000000 1100000 0  0 1150000 0  50000 1150000 0  100000 1150000 0  150000 1150000 0  200000 1150000 0  250000 1150000 0  300000 1150000 0  350000 1150000 0  400000 1150000 0  450000 1150000 0  500000 1150000 0  550000 1150000 0  600000 1150000 0  650000 1150000 0  700000 1150000 0  750000 1150000 0  800000 1150000 0  850000 1150000 0  900000 1150000 0  950000 1150000 0  1000000 1150000 0  0 1200000 0  50000 1200000 0  100000 1200000 0  150000 1200000 0  200000 1200000 0  250000 1200000 0  300000 1200000 0  350000 1200000 0  400000 1200000 0  450000 1200000 0  500000 1200000 0  550000 1200000 0  600000 1200000 0  650000 1200000 0  700000 1200000 0  750000 1200000 0  800000 1200000 0  850000 1200000 0  900000 1200000 0  950000 1200000 0  1000000 1200000 0  0 1250000 0  50000 1250000 0  100000 1250000 0  150000 1250000 0  200000 1250000 0  250000 1250000 0  300000 1250000 0  350000 1250000 0  400000 1250000 0  450000 1250000 0  500000 1250000 0  550000 1250000 0  600000 1250000 0  650000 1250000 0  700000 1250000 0  750000 1250000 0  800000 1250000 0  850000 1250000 0  900000 1250000 0  950000 1250000 0  1000000 1250000 0  0 1300000 0  50000 1300000 0  100000 1300000 0  150000 1300000 0  200000 1300000 0  250000 1300000 0  300000 1300000 0  350000 1300000 0  400000 1300000 0  450000 1300000 0  500000 1300000 0  550000 1300000 0  600000 1300000 0  650000 1300000 0  700000 1300000 0  750000 1300000 0  800000 1300000 0  850000 1300000 0  900000 1300000 0  950000 1300000 0  1000000 1300000 0  0 1350000 0  50000 1350000 0  100000 1350000 0  150000 1350000 0  200000 1350000 0  250000 1350000 0  300000 1350000 0  350000 1350000 0  400000 1350000 0  450000 1350000 0  500000 1350000 0  550000 1350000 0  600000 1350000 0  650000 1350000 0  700000 135
[...]
<PointData  Scalars="f_21"> 
<DataArray  type="Float64"  Name="f_21"  format="ascii">-8.0053848464782842e+00  -8.0053217923978046e+00  -8.0051318279097181e+00  -8.0048151480637983e+00  -8.0043762210798519e+00  -8.0038235840566703e+00  -8.0031695975067390e+00  -8.0024300665810095e+00  -8.0016237280853897e+00  -8.0007716210177193e+00  -7.9998963656890485e+00  -7.9990213803714489e+00  -7.9981700665785329e+00  -7.9973649950808028e+00  -7.9966271247749114e+00  -7.9959750855846883e+00  -7.9954245545638054e+00  -7.9949877510176028e+00  -7.9946730711553249e+00  -7.9944848730789673e+00  -7.9944233703337915e+00  -8.0054436727569502e+00  -8.0053798110556684e+00  -8.0051874923924764e+00  -8.0048671757235361e+00  -8.0044234167162678e+00  -8.0038648476513856e+00  -8.0032039525561736e+00  -8.0024566886787021e+00  -8.0016419696333259e+00  -8.0007810307403791e+00  -7.9998967023425287e+00  -7.9990126203176963e+00  -7.9981524050480486e+00  -7.9973388410563198e+00  -7.9965930895224915e+00  -7.9959339649493391e+00  -7.9953773052324468e+00  -7.9949354610523660e+00  -7.9946169255789492e+00  -7.9944261207494112e+00  -7.9943633802002214e+00  -8.0056204863035436e+00  -8.0055542977624512e+00  -8.0053552188000303e+00  -8.0050241007649507e+00  -8.0045657938060977e+00  -8.0039892580661807e+00  -8.0033073835757840e+00  -8.0025366161661129e+00  -8.0016964308006511e+00  -8.0008086815117654e+00  -7.9998968567804214e+00  -7.9989852708830878e+00  -7.9980982231612439e+00  -7.9972591579111212e+00  -7.9964898575921115e+00  -7.9958097013110629e+00  -7.9952350191059942e+00  -7.9947785708187151e+00  -7.9944491782219895e+00  -7.9942515482543266e+00  -7.9941863674258666e+00  -8.0059158179798420e+00  -8.0058460034796930e+00  -8.0056361531724018e+00  -8.0052873902330823e+00  -8.0048049853911110e+00  -8.0041984556482273e+00  -8.0034813955536350e+00  -8.0026710984825780e+00  -8.0017880114924633e+00  -8.0008550587077085e+00  -7.9998968658068330e+00  -7.9989389182614765e+00  -7.9980066865527899e+00  -7.9971247519735256e+00  -7.9963159666280408e+00  -7.9956006808573550e+00  -7.9949960706940226e+00  -7.9945155976722031e+00  -7.9941686350103369e+00  -7.9939603008934679e+00  -7.9938915502517425e+00  -8.0063324746474009e+00  -8.0062577130382770e+00  -8.0060330612683508e+00  -8.0056597838277650e+00  -8.0051436293086926e+00  -8.0044948674974172e+00  -8.0037280922343772e+00  -8.0028618153089610e+00  -8.0019178866458009e+00  -8.0009207762875896e+00  -7.9998967530227709e+00  -7.9988729942717098e+00  -7.9978766618526169e+00  -7.9969339782947193e+00  -7.9960693383740278e+00  -7.9953044904996116e+00  -7.9946578225088745e+00  -7.9941437864728497e+00  -7.9937724973659234e+00  -7.9935495397087957e+00  -7.9934760074581561e+00  -8.0068749706593358e+00  -8.0067938741511462e+00  -8.0065502194869396e+00  -8.0061453176594579e+00  -8.0055854399768460e+00  -8.0048817898945988e+00  -8.0040502530244027e+00  -8.0031109399865255e+00  -8.0020875516613987e+00  -8.0010066016119907e+00  -7.9998965317498305e+00  -7.9987867572990750e+00  -7.9977066767767200e+00  -7.9966846824668902e+00  -7.9957472068873159e+00  -7.9949178410084327e+00  -7.9942165602921520e+00  -7.9936590945330064e+00  -7.9932564760510072e+00  -7.9930147957002067e+00  -7.9929351826221344e+00  -8.0075492296704045e+00  -8.0074603244901077e+00  -8.0071932234235348e+00  -8.0067492169013352e+00  -8.0061351568213421e+00  -8.0053633673060105e+00  -8.0044513270554276e+00  -8.0034211402082267e+00  -8.0022988253828427e+00  -8.0011134585865644e+00  -7.9998962074408526e+00  -7.9986792938847557e+00  -7.9974949216348259e+00  -7.9963742040611097e+00  -7.9953461281844271e+00  -7.9944365911926170e+00  -7.9936675467837963e+00  -7.9930562989081047e+00  -7.9926149787046761e+00  -7.9923502345934327e+00  -7.9922631533479951e+00  -8.0083623363676395e+00  -8.0082640481856533e+00  -8.0079687681084266e+00  -8.0074777165806648e+00  -8.0067984052905903e+00  -8.0059444862763716e+00  -8.0049353532063652e+00  -8.0037955201356166e+00  -8.0025538125496301e+00  -8.0012424099466930e+00  -7.9998957797070771e+00  -7.9985495403830065e+00  -7.9972392904907821e+00  -7.9959994375973764e+00  -7.9948620625807836e+00  -7.9938558553848029e+00  -7.9930051607364128e+00  -7.9923291739338991e+00  -7.9918413263027483e+00  -7.9915488954910519e+00  -7.9914528663311666e+00  -8.0093222655765182e+00  -8.0092129060411992e+00  -8.0088843860888179e+00  -8.0083378195419872e+00  -8.0075814824404556e+00  -8.0066305920007288e+00  -8.0055068095325126e+00  -8.0042375047394021e+00  -8.0028548254485248e+00  -8.0013946183705986e+00  -7.9998952441040991e+00  -7.9983963252746921e+00  -7.9969374625139711e+00  -7.9955569505355415e+00  -7.9942905267138586e+00  -7.9931701872810077e+00  -7.9922231106219952e+00  -7.9914707315285325e+00  -7.9909280125897100e+00  -7.9906029571618467e+00  -7.9904964014620470e+00  -8.0104375479890493e+00  -8.0103153015263526e+00  -8.0099481170573252e+00  -8.0093369781063082e+00  -8.0084910603541779e+00  -8.0074274227210687e+00  -8.0061703873241274e+00  -8.0047506617634436e+00  -8.0032042611135861e+00  -8.0015712844723161e+00  -7.9998945938539157e+00  -7.9982184344346301e+00  -7.9965870275107607e+00  -7.9950431632331949e+00  -7.9936268204155310e+00  -7.9923738454314313e+00  -7.9913147301565344e+00  -7.9904735377849478e+00  -7.9898670322732714e+00  -7.9895040693145258e+00  -7.9893853022691497e+00  -8.0117168398549481e+00  -8.0115797504004949e+00  -8.0111680799028893e+00  -8.0104826757178031e+00  -8.0095337884337621e+00  -8.0083406461544566e+00  -8.0069306763555854e+00  -8.0053384503606999e+00  -8.0036044262541601e+00  -8.0017735576670095e+00  -7.9998938217157933e+00  -7.9980147037729328e+00  -7.9961856638336739e+00  -7.9944546021463303e+00  -7.9928663421269164e+00  -7.9914611563251157e+00  -7.9902733745854810e+00  -7.9893301293155270e+00  -7.9886503067157779e+00  -7.9882437806062647e+00  -7.9881110038333105e+00  -8.0131683642415137e+00  -8.0130143214496670e+00  -8.0125519149949991e+00  -8.0117818780548813e+00  -8.0107157664917761e+00  -8.0093753726897727e+00  -8.0077917393896190e+00  -8.0060038786641776e+00  -8.0040572974071313e+00  -8.0020024135317005e+00  -7.9998929222572652e+00  -7.9977841461070538e+00  -7.9957313815847471e+00  -7.9937882443149038e+00  -7.9920050149536319e+00  -7.9904270003250106e+00  -7.9890929456200652e+00  -7.9880335595584526e+00  -7.9872702389679890e+00  -7.9868140955195104e+00  -7.9866653897584925e+00  -8.0147991883251759e+00  -8.0146259123306081e+00  -8.0141060597720646e+00  -8.0132403162880994e+00  -8.0120418520412837e+00  -8.0105355108914562e+00  -8.0087565453045073e+00  -8.0067490453074246e+00  -8.0045641986668468e+00  -8.0022584886460049e+00  -7.9998918948246551e+00  -7.9975261218470273e+00  -7.9952228492322295e+00  -7.9930419784388356e+00  -7.9910398541166572e+00  -7.9892674548243559e+00  -7.9877685813503403e+00  -7.9865781119813288e+00  -7.9857204346845823e+00  -7.9852081957245264e+00  -7.9850415132371015e+00  -8.0166142961719604e+00  -8.0164193191369382e+00  -8.0158348142561522e+00  -8.0148615571325710e+00  -8.0135147557378144e+00  -8.0118229208270364e+00  -8.0098262207130517e+00  -8.0075745319496114e+00  -8.0051253736813699e+00  -8.0025418609902736e+00  -7.9998907475730219e+00  -7.9972405660990855e+00  -7.9946598275216543e+00  -7.9922152158700817e+00  -7.9899697160595711e+00  -7.9879806389631911e+00  -7.9862975568040886e+00  -7.9849602250329434e+00  -7.9839966318049207e+00  -7.9834213669015739e+00  -7.9832345224162600e+00  -8.0186154101330001e+00  -8.0183960514376569e+00  -8.0177391448881181e+00  -8.0166458043789888e+00  -8.0151338676051154e+00  -8.0132363090617016e+00  -8.0109990691514152e+00  -8.0084786050240648e+00  -8.0057394224388627e+00  -8.0028517608588015e+00  -7.9998895029833390e+00  -7.9969282880511257e+00  -7.9940437408652469e+00  -7.9913096937999466e+00  -7.9887962803244346e+00  -7.9865678158882645e+00  -7.9846804520174945e+00  -7.9831796834728266e+00  -7.9820978899445709e+00  -7.9814521788121322e+00  -7.9812428367276178e+00  -8.0207995063374273e+00  -8.0205528360716567e+00  -8.0198151646362081e+00  -8.0185883639184325e+00  -8.0168937426155509e+00  -8.0147697952366226e+00  -8.0122692946762122e+00  -8.0094561754430913e+00  -8.0064025670805190e+00  -8.0031861941749725e+00  -7.9998882053511577e+00  -7.9965913617066331e+00  -7.9933784228558649e+00  -7.9903305226032195e+00  -7.9875253277003155e+00  -7.9850348224920200e+00  -7.9829226584005060e+00  -7.9812411431073800e+00  -7.9800281006236888e+00  -7.9793039747848988e+00  -7.9790696286397704e+00  -8.0231569602951325e+00  -8.0228797422087563e+00  -8.0220522136072638e+00  -8.0206776876270069e+00  -8.0187821563703849e+00  -8.0164110636362569e+00  -8.0136253535192292e+00  -8.0104974559343258e+00  -8.0071077057182816e+00  -8.0035414577827915e+00  -7.9998869307315701e+00  -7.9962336294028225e+00  -7.9926710779993932e+00  -7.9892875386723583e+00  -7.9861683916638420e+00  -7.9833939132439271e+00  -7.9810363118823222e+00  -7.9791560722280508e+00  -7.9777978927629380e+00  -7.9769867373949346e+00  -7.9767246750046805e+00  -8.0256692459657781e+00  -8.0253578454099728e+00  -8.0244304451474289e+00  -8.0228928885691690e+00  -8.0207776186399649e+00  -8.0181389942517463e+00  -8.0150478451252329e+00  -8.0115862498048234e+00  -8.0078432116461027e+00  -8.0039115262892331e+00  -7.9998857996819641e+00  -7.9958613393831479e+00  -7.9919335034929606e+00  -7.9881970304419223e+00  -7.9847448731138586e+00  -7.9816661241185898e+00  -7.9790427643145012e+00  -7.9769452154266407e+00  -7.9754270264168996e+00  -7.9745194115874360e+00  -7.9742266552410257e+00  -8.0283060928629961e+00  -8.0279563260494164e+00  -8.0269177931940749e+00  -8.0252005866928631e+00  -8.0228462024726372e+00  -8.0199206480050194e+00  -8.0165068468916107e+00  -8.0126978081215956e+00  -8.0085914427322500e+00  -8.0042872953876643e+00  -7.9998849926966225e+00  -7.9954839326749054e+00  -7.9911836074308926e+00  -7.9870839028321381e+00  -7.9832847166737331e+00  -7.9798842836673103e+00  -7.9769757350715143e+00  -7.9746417180676321e+00  -7.9729473957150185e+00  -7.9719327882477780e+00  -7.9716059931085912e+00  -8.0310219748454035e+00  -8.0306288601908680e+00  -8.0294661486340964e+00  -8.0275508931136752e+00  -8.0249375071455109e+00  -8.0217074643956003e+00  -8.0179586048962133e+00  -8.0137962161238701e+00  -8.0093269520275499e+00  -8.0046556827751445e+00  -7.9998847672118707e+00  -7.9951149766967298e+00  -7.9904472330179201e+00  -7.9859843224662219e+00  -7.9818317411553910e+00  -7.9780968173218287e+00  -7.9748853256917922e+00  -7.9722951000485196e+00  -7.9704068077823349e+00  -7.9692730871482533e+00  -7.9689083710251589e+00  -8.0337517492459725e+00  -8.0333090940620515e+00  -8.0320064883015068e+00  -8.0298722591465399e+00  -8.0269795227390404e+00  -8.0234305281061644e+00  -8.0193415355348598e+00  -8.0148313354135006e+00  -8.0100144526674715e+00  -8.0049986238275466e+00  -7.9998854730947437e+00  -7.9947732035888279e+00  -7.9897602346106389e+00  -7.9849488212059683e+00  -7.9804476779487139e+00  -7.9763724981417647e+00  -7.9728431349202209e+00  -7.9699763491919979e+00  -7.9678737844975647e+00  -7.9666064421220666e+00  -7.9661991032295667e+00  -8.0364051620755834e+00  -8.0359048663063284e+00  -8.0344425456232873e+00  -8.0320647813741957e+00  -8.0288721058154682e+00  -8.0249948010462884e+00  -8.0205716087683943e+00  -8.0157354728086876e+00  -8.0106067146067996e+00  -8.0052920685080338e+00  -7.9998875601730353e+00  -7.9944835358121651e+00  -7.9891706228346546e+00  -7.9840456910806923e+00  -7.9792168607888234e+00  -7.9748062675229354e+00  -7.9709487797477339e+00  -7.9677845417139039e+00  -7.9654437812463907e+00  -7.9640246111545157e+00  -7.9635686616342234e+00  -8.0388597356983205e+00  -8.0382905908079731e+00  -8.0366423178346142e+00  -8.0339913326221399e+00  -8.0304787317705415e+00  -8.0262723605373143e+00  -8.0215374446457712e+00  -8.0164202279698351e+00  -8.0110427940934930e+00  -8.0055052050673101e+00  -7.9998915663911099e+00  -7.9942778526389935e+00  -7.9887403640522594e+00  -7.9833642184416718e+00  -7.9782512549054356e+00  -7.9735261226898455e+00  -7.9693381948064701e+00  -7.9658556296182574e+00  -7.9632474985107997e+00  -7.9616524679969931e+00  -7.9611398575483756e+00  -8.0409511566165204e+00  -8.0402966926959429e+00  -8.0384261317906027e+00  -8.0354655434267315e+00  -8.0316162430389966e+00  -8.0270950734971844e+00  -8.0220959879952005e+00  -8.0167744706030728e+00  -8.0112473567640183e+00  -8.0056003176452517e+00  -7.9998980692577160e+00  -7.9941950562656583e+00  -7.9885460434999063e+00  -7.9830167921278976e+00  -7.9776949788578353e+00  -7.9727007030891901e+00  -7.9681940775220594e+00  -7.9643744186869343e+00  -7.9614625188683821e+00  -7.9596583073346050e+00  -7.9590776053498482e+00  -8.0424594486320213e+00  -8.0416938532573123e+00  -8.0395488610679369e+00  -8.0362352069188123e+00  -8.0320427244681376e+00  -8.0272480717790984e+00  -8.0220706327209719e+00  -8.0166651949544701e+00  -8.0111323597064885e+00  -8.0055339187264192e+00  -7.9999075793225716e+00  -7.9942797495630522e+00  -7.9886770715162418e+00  -7.9831380870265667e+00  -7.9777264372288634e+00  -7.9725462893428372e+00  -7.9677585249332719e+00  -7.9635913295108036e+00  -7.9603306350799024e+00  -7.9582690135707548e+00  -7.9576030912980773e+00  -8.0430873607136899e+00  -8.0421671559375678e+00  -8.0396716943538920e+00  -8.0359594537643968e+00  -8.0314451468857602e+00  -8.0264674649667143e+00  -8.0212553932702022e+00  -8.0159440886740807e+00  -8.0106029100220439e+00  -8.0052600121882609e+00  -7.9999203595417177e+00  -7.9945786227455757e+00  -7.9892295298893545e+00  -7.9838783616634768e+00  -7.9785543562236425e+00  -7.9733298068143412e+00  -7.9683465204609547e+00  -7.9638460716634647e+00  -7.9601855827671422e+00  -7.9577944924493496e+00  -7.9570162156037272e+00  -8.0424227988266530e+00  -8.0412684614904020e+00  -8.0383149918745946e+00  -8.0341796651566746e+00  -8.0294329106710265e+00  -8.0244498802067579e+00  -8.0194312362568265e+00  -8.0144637169399804e+00  -8.0095693814502642e+00  -8.0047363513287380e+00  -7.9999361803950499e+00  -7.9951336768363825e+00  -7.9902934830202863e+00  -7.9853867372086285e+00  -7.9804012579499748e+00  -7.9753599865384484e+00  -7.9703544299844049e+00  -7.9655993993227847e+00  -7.9615006092836280e+00  -7.9586717953579802e+00  -7.9577353598155440e+00  -8.0398636646046295e+00  -8.0383168359521573e+00  -8.0347796244030736e+00  -8.0302936993212999e+00  -8.0255549151593755e+00  -8.0208884010455481e+00  -8.0164031319983771e+00  -8.0121072025230919e+00  -8.0079671226241604e+00  -8.0039340257585643e+00  -7.9999540781096501e+00  -7.9959720570244022e+00  -7.9919324139472732e+00  -7.9877802955295945e+00  -7.9834650631794339e+00  -7.9789509815649371e+00  -7.9742453531699367e+00  -7.9694652517871907e+00  -7.9649726892185715e+00  -7.9615571239948784e+00  -7.9603788368358650e+00  -8.0344315026242317e+00  -8.0321654201390604e+00  -8.0280372274079088e+00  -8.0235796308059744e+00  -8.0193815301505520e+00  -8.0155568619192952e+00  -8.0120652939151480e+00  -8.0088319396933549e+00  -8.0057822856275447e+00  -8.0028492725242888e+00  -7.9999722612080317e+00  -7.9970939051059453e+00  -7.9941565490714694e+00  -7.9910985014374623e+00  -7.9878504699566015e+00  -7.9843336464717423e+00  -7.9804656439120718e+00  -7.9761971378935606e+00  -7.9716549437136219e+00  -7.9675532159869782e+00  -7.9659688095207875e+00  -8.0240715084076744e+00  -8.0206524146278149e+00  -8.0167237899686530e+00  -8.0134177161316131e+00  -8.0107211225971771e+00  -8.0084583321696101e+00  -8.0064895855836635e+00  -8.0047183980101995e+00  -8.0030768792717861e+00  -8.0015140755983385e+00  -7.9999883466533177e+00  -7.9984621357900005e+00  -7.9968977546985940e+00  -7.9952530877147341e+00  -7.9934760374718268e+00  -7.9914959639235361e+00  -7.9892093036239213e+00  -7.9864570995493329e+00  -7.9830152442864648e+00  -7.9788496498138484e+00  -7.9766437910178114e+00  -8.0000000000000000e+00  -8.0000000000000000e+00  -8.0000000000000000e+00  -8.0000000000000000e+00  -8.0000000000000000e+00  -8.0000000000000000e+00  -8.0000000000000000e+00  -8.0000000000000000e+00  -8.0000000000000000e+00  -8.0000000000000000e+00  -8.0000000000000000e+00  -8.0000000000000000e+00  -8.0000000000000000e+00  -8.0000000000000000e+00  -8.0000000000000000e+00  -8.0000000000000000e+00  -8.0000000000000000e+00  -8.0000000000000000e+00  -8.0000000000000000e+00  -8.0000000000000000e+00  -8.0000000000000000e+00  </DataArray> 
</PointData> 
</Piece>
</UnstructuredGrid>
</VTKFile>