<?xml version="1.0"?>
<VTKFile type="UnstructuredGrid"  version="0.1"  >
<UnstructuredGrid>
<Piece  NumberOfPoints="651" NumberOfCells="1200">
<Points>
<DataArray  type="Float64"  NumberOfComponents="3"  format="ascii">0 0 0  50000 0 0  100000 0 0  150000 0 0  200000 0 0  250000 0 0  300000 0 0  350000 0 0  400000 0 0  450000 0 0  500000 0 0  550000 0 0  600000 0 0  650000 0 0  700000 0 0  750000 0 0  800000 0 0  850000 0 0  900000 0 0  950000 0 0  1000000 0 0  0 50000 0  50000 50000 0  100000 50000 0  150000 50000 0  200000 50000 0  250000 50000 0  300000 50000 0  350000 50000 0  400000 50000 0  450000 50000 0  500000 50000 0  550000 50000 0  600000 50000 0  650000 50000 0  700000 50000 0  750000 50000 0  800000 50000 0  850000 50000 0  900000 50000 0  950000 50000 0  1000000 50000 0  0 100000 0  50000 100000 0  100000 100000 0  150000 100000 0  200000 100000 0  250000 100000 0  300000 100000 0  350000 100000 0  400000 100000 0  450000 100000 0  500000 100000 0  550000 100000 0  600000 100000 0  650000 100000 0  700000 100000 0  750000 100000 0  800000 100000 0  850000 100000 0  900000 100000 0  950000 100000 0  1000000 100000 0  0 150000 0  50000 150000 0  100000 150000 0  150000 150000 0  200000 150000 0  250000 150000 0  300000 150000 0  350000 150000 0  400000 150000 0  450000 150000 0  500000 150000 0  550000 150000 0  600000 150000 0  650000 150000 0  700000 150000 0  750000 150000 0  800000 150000 0  850000 150000 0  900000 150000 0  950000 150000 0  1000000 150000 0  0 200000 0  50000 200000 0  100000 200000 0  150000 200000 0  200000 200000 0  250000 200000 0  300000 200000 0  350000 200000 0  400000 200000 0  450000 200000 0  500000 200000 0  550000 200000 0  600000 200000 0  650000 200000 0  700000 200000 0  750000 200000 0  800000 200000 0  850000 200000 0  900000 200000 0  950000 200000 0  1000000 200000 0  0 250000 0  50000 250000 0  100000 250000 0  150000 250000 0  200000 250000 0  250000 250000 0  300000 250000 0  350000 250000 0  400000 250000 0  450000 250000 0  500000 250000 0  550000 250000 0  600000 250000 0  650000 250000 0  700000 250000 0  750000 250000 0  800000 250000 0  850000 250000 0  900000 250000 0  950000 250000 0  1000000 250000 0  0 300000 0  50000 300000 0  100000 300000 0  150000 300000 0  200000 300000 0  250000 300000 0  300000 300000 0  350000 300000 0  400000 300000 0  450000 300000 0  500000 300000 0  550000 300000 0  600000 300000 0  650000 300000 0  700000 300000 0  750000 300000 0  800000 300000 0  850000 300000 0  900000 300000 0  950000 300000 0  1000000 300000 0  0 350000 0  50000 350000 0  100000 350000 0  150000 350000 0  200000 350000 0  250000 350000 0  300000 350000 0  350000 350000 0  400000 350000 0  450000 350000 0  500000 350000 0  550000 350000 0  600000 350000 0  650000 350000 0  700000 350000 0  750000 350000 0  800000 350000 0  850000 350000 0  900000 350000 0  950000 350000 0  1000000 350000 0  0 400000 0  50000 400000 0  100000 400000 0  150000 400000 0  200000 400000 0  250000 400000 0  300000 400000 0  350000 400000 0  400000 400000 0  450000 400000 0  500000 400000 0  550000 400000 0  600000 400000 0  650000 400000 0  700000 400000 0  750000 400000 0  800000 400000 0  850000 400000 0  900000 400000 0  950000 400000 0  1000000 400000 0  0 450000 0  50000 450000 0  100000 450000 0  150000 450000 0  200000 450000 0  250000 450000 0  300000 450000 0  350000 450000 0  400000 450000 0  450000 450000 0  500000 450000 0  550000 450000 0  600000 450000 0  650000 450000 0  700000 450000 0  750000 450000 0  800000 450000 0  850000 450000 0  900000 450000 0  950000 450000 0  1000000 450000 0  0 500000 0  50000 500000 0  100000 500000 0  150000 500000 0  200000 500000 0  250000 500000 0  300000 500000 0  350000 500000 0  400000 500000 0  450000 500000 0  500000 500000 0  550000 500000 0  600000 500000 0  650000 500000 0  700000 500000 0  750000 500000 0  800000 500000 0  850000 500000 0  900000 500000 0  950000 500000 0  1000000 500000 0  0 550000 0  50000 550000 0  100000 550000 0  150000 550000 0  200000 550000 0  250000 550000 0  300000 550000 0  350000 550000 0  400000 550000 0  450000 550000 0  500000 550000 0  550000 550000 0  600000 550000 0  650000 550000 0  700000 550000 0  750000 550000 0  800000 550000 0  850000 550000 0  900000 550000 0  950000 550000 0  1000000 550000 0  0 600000 0  50000 600000 0  100000 600000 0  150000 600000 0  200000 600000 0  250000 600000 0  300000 600000 0  350000 600000 0  400000 600000 0  450000 600000 0  500000 600000 0  550000 600000 0  600000 600000 0  650000 600000 0  700000 600000 0  750000 600000 0  800000 600000 0  850000 600000 0  900000 600000 0  950000 600000 0  1000000 600000 0  0 650000 0  50000 650000 0  100000 650000 0  150000 650000 0  200000 650000 0  250000 650000 0  300000 650000 0  350000 650000 0  400000 650000 0  450000 650000 0  500000 650000 0  550000 650000 0  600000 650000 0  650000 650000 0  700000 650000 0  750000 650000 0  800000 650000 0  850000 650000 0  900000 650000 0  950000 650000 0  1000000 650000 0  0 700000 0  50000 700000 0  100000 700000 0  150000 700000 0  200000 700000 0  250000 700000 0  300000 700000 0  350000 700000 0  400000 700000 0  450000 700000 0  500000 700000 0  550000 700000 0  600000 700000 0  650000 700000 0  700000 700000 0  750000 700000 0  800000 700000 0  850000 700000 0  900000 700000 0  950000 700000 0  1000000 700000 0  0 750000 0  50000 750000 0  100000 750000 0  150000 750000 0  200000 750000 0  250000 750000 0  300000 750000 0  350000 750000 0  400000 750000 0  450000 750000 0  500000 750000 0  550000 750000 0  600000 750000 0  650000 750000 0  700000 750000 0  750000 750000 0  800000 750000 0  850000 750000 0  900000 750000 0  950000 750000 0  1000000 750000 0  0 800000 0  50000 800000 0  100000 800000 0  150000 800000 0  200000 800000 0  250000 800000 0  300000 800000 0  350000 800000 0  400000 800000 0  450000 800000 0  500000 800000 0  550000 800000 0  600000 800000 0  650000 800000 0  700000 800000 0  750000 800000 0  800000 800000 0  850000 800000 0  900000 800000 0  950000 800000 0  1000000 800000 0  0 850000 0  50000 850000 0  100000 850000 0  150000 850000 0  200000 850000 0  250000 850000 0  300000 850000 0  350000 850000 0  400000 850000 0  450000 850000 0  500000 850000 0  550000 850000 0  600000 850000 0  650000 850000 0  700000 850000 0  750000 850000 0  800000 850000 0  850000 850000 0  900000 850000 0  950000 850000 0  1000000 850000 0  0 900000 0  50000 900000 0  100000 900000 0  150000 900000 0  200000 900000 0  250000 900000 0  300000 900000 0  350000 900000 0  400000 900000 0  450000 900000 0  500000 900000 0  550000 900000 0  600000 900000 0  650000 900000 0  700000 900000 0  750000 900000 0  800000 900000 0  850000 900000 0  900000 900000 0  950000 900000 0  1000000 900000 0  0 950000 0  50000 950000 0  100000 950000 0  150000 950000 0  200000 950000 0  250000 950000 0  300000 950000 0  350000 950000 0  400000 950000 0  450000 950000 0  500000 950000 0  550000 950000 0  600000 950000 0  650000 950000 0  700000 950000 0  750000 950000 0  800000 950000 0  850000 950000 0  900000 950000 0  950000 950000 0  1000000 950000 0  0 1000000 0  50000 1000000 0  100000 1000000 0  150000 1000000 0  200000 1000000 0  250000 1000000 0  300000 1000000 0  350000 1000000 0  400000 1000000 0  450000 1000000 0  500000 1000000 0  550000 1000000 0  600000 1000000 0  650000 1000000 0  700000 1000000 0  750000 1000000 0  800000 1000000 0  850000 1000000 0  900000 1000000 0  950000 1000000 0  1000000 1000000 0  0 1050000 0  50000 1050000 0  100000 1050000 0  150000 1050000 0  200000 1050000 0  250000 1050000 0  300000 1050000 0  350000 1050000 0  400000 1050000 0  450000 1050000 0  500000 1050000 0  550000 1050000 0  600000 1050000 0  650000 1050000 0  700000 1050000 0  750000 1050000 0  800000 1050000 0  850000 1050000 0  900000 1050000 0  950000 1050000 0  1000000 1050000 0  0 1100000 0  50000 1100000 0  100000 1100000 0  150000 1100000 0  200000 1100000 0  250000 1100000 0  300000 1100000 0  350000 1100000 0  400000 1100000 0  450000 1100000 0  500000 1100000 0  550000 1100000 0  600000 1100000 0  650000 1100000 0  700000 1100000 0  750000 1100000 0  800000 1100000 0  850000 1100000 0  900000 1100000 0  950000 1100000 0  1000000 1100000 0  0 1150000 0  50000 1150000 0  100000 1150000 0  150000 1150000 0  200000 1150000 0  250000 1150000 0  300000 1150000 0  350000 1150000 0  400000 1150000 0  450000 1150000 0  500000 1150000 0  550000 1150000 0  600000 1150000 0  650000 1150000 0  700000 1150000 0  750000 1150000 0  800000 1150000 0  850000 1150000 0  900000 1150000 0  950000 1150000 0  1000000 1150000 0  0 1200000 0  50000 1200000 0  100000 1200000 0  150000 1200000 0  200000 1200000 0  250000 1200000 0  300000 1200000 0  350000 1200000 0  400000 1200000 0  450000 1200000 0  500000 1200000 0  550000 1200000 0  600000 1200000 0  650000 1200000 0  700000 1200000 0  750000 1200000 0  800000 1200000 0  850000 1200000 0  900000 1200000 0  950000 1200000 0  1000000 1200000 0  0 1250000 0  50000 1250000 0  100000 1250000 0  150000 1250000 0  200000 1250000 0  250000 1250000 0  300000 1250000 0  350000 1250000 0  400000 1250000 0  450000 1250000 0  500000 1250000 0  550000 1250000 0  600000 1250000 0  650000 1250000 0  700000 1250000 0  750000 1250000 0  800000 1250000 0  850000 1250000 0  900000 1250000 0  950000 1250000 0  1000000 1250000 0  0 1300000 0  50000 1300000 0  100000 1300000 0  150000 1300000 0  200000 1300000 0  250000 1300000 0  300000 1300000 0  350000 1300000 0  400000 1300000 0  450000 1300000 0  500000 1300000 0  550000 1300000 0  600000 1300000 0  650000 1300000 0  700000 1300000 0  750000 1300000 0  800000 1300000 0  850000 1300000 0  900000 1300000 0  950000 1300000 0  1000000 1300000 0  0 1350000 0  50000 1350000 0  100000 1350000 0  150000 1350000 0  200000 1350000 0  250000 1350000 0  300000 1350000 0  350000 1350000 0  400000 1350000 0  450000 1350000 0  500000 1350000 0  550000 1350000 0  600000 1350000 0  650000 1350000 0  700000 135
[...]
<PointData  Vectors="f_15"> 
<DataArray  type="Float64"  Name="f_15"  NumberOfComponents="3" format="ascii">-3.1596134265827387e-10 3.0622398460830834e-10 0.0000000000000000e+00  -5.8870956131299261e-10 2.5280824279601047e-10 0.0000000000000000e+00  -1.0739908708763483e-09 2.2955375613001242e-10 0.0000000000000000e+00  -1.5430588225242864e-09 2.0916001862254233e-10 0.0000000000000000e+00  -1.9725615084216599e-09 1.8577643606873231e-10 0.0000000000000000e+00  -2.3499453216572195e-09 1.5872391959016766e-10 0.0000000000000000e+00  -2.6650152577516453e-09 1.2824417753463975e-10 0.0000000000000000e+00  -2.9095294863136415e-09 9.4902247398397649e-11 0.0000000000000000e+00  -3.0771872900720920e-09 5.9438181059310628e-11 0.0000000000000000e+00  -3.1637380318514587e-09 2.2693807386279648e-11 0.0000000000000000e+00  -3.1670716249400211e-09 -1.4433665027238119e-11 0.0000000000000000e+00  -3.0872622533464521e-09 -5.1027083150327410e-11 0.0000000000000000e+00  -2.9265599839093521e-09 -8.6180425530733233e-11 0.0000000000000000e+00  -2.6893302242292665e-09 -1.1902890851179240e-10 0.0000000000000000e+00  -2.3819517577548552e-09 -1.4878238375729009e-10 0.0000000000000000e+00  -2.0127395134679253e-09 -1.7477601884829430e-10 0.0000000000000000e+00  -1.5922392862554074e-09 -1.9659000321159334e-10 0.0000000000000000e+00  -1.1354867202354525e-09 -2.1438223825515531e-10 0.0000000000000000e+00  -6.7270399307877912e-10 -2.2856229269089414e-10 0.0000000000000000e+00  -2.9476563239864064e-10 -2.2122632070341205e-10 0.0000000000000000e+00  -1.3551940923721503e-10 -1.3800844143750900e-10 0.0000000000000000e+00  -2.6846808700383630e-10 5.5780458384684967e-10 0.0000000000000000e+00  -4.9591400913774742e-10 4.9069192580176681e-10 0.0000000000000000e+00  -8.8317108462447989e-10 5.0131210632621440e-10 0.0000000000000000e+00  -1.3059953216503259e-09 4.7772031679446312e-10 0.0000000000000000e+00  -1.7090945071461590e-09 4.3519109169292668e-10 0.0000000000000000e+00  -2.0724516973045173e-09 3.7903702873123896e-10 0.0000000000000000e+00  -2.3839152371265549e-09 3.1210663126498079e-10 0.0000000000000000e+00  -2.6343009206267203e-09 2.3669742153614037e-10 0.0000000000000000e+00  -2.8166192863027699e-09 1.5503535902198334e-10 0.0000000000000000e+00  -2.9259451751768623e-09 6.9387674601470017e-11 0.0000000000000000e+00  -2.9594217326797833e-09 -1.7929861566179109e-11 0.0000000000000000e+00  -2.9162792090130558e-09 -1.0458171268937555e-10 0.0000000000000000e+00  -2.7978345211890121e-09 -1.8825301578354625e-10 0.0000000000000000e+00  -2.6074642238829849e-09 -2.6668996404396268e-10 0.0000000000000000e+00  -2.3505612836686044e-09 -3.3772952008851315e-10 0.0000000000000000e+00  -2.0345244377804106e-09 -3.9929866717673649e-10 0.0000000000000000e+00  -1.6689644249280921e-09 -4.4931973709400277e-10 0.0000000000000000e+00  -1.2668653265084016e-09 -4.8520696472245004e-10 0.0000000000000000e+00  -8.4978180476104418e-10 -5.0104039910745142e-10 0.0000000000000000e+00  -4.6986807298821151e-10 -4.7381840897710822e-10 0.0000000000000000e+00  -2.2634292747755273e-10 -2.8571677889187887e-10 0.0000000000000000e+00  -2.6414138053751946e-10 1.0037482229552089e-09 0.0000000000000000e+00  -5.0684648529459088e-10 8.6646952955701705e-10 0.0000000000000000e+00  -8.7755103639575612e-10 8.6923056913876939e-10 0.0000000000000000e+00  -1.2683872515878825e-09 8.3215327564172804e-10 0.0000000000000000e+00  -1.6407891744477118e-09 7.6239944314621678e-10 0.0000000000000000e+00  -1.9777179293325051e-09 6.6726526857342098e-10 0.0000000000000000e+00  -2.2673149251806302e-09 5.5206171043343439e-10 0.0000000000000000e+00  -2.5005804432591143e-09 4.2117452775814395e-10 0.0000000000000000e+00  -2.6706918386903377e-09 2.7874193661705869e-10 0.0000000000000000e+00  -2.7728588161690457e-09 1.2889357147095441e-10 0.0000000000000000e+00  -2.8043036200398527e-09 -2.4197878949101093e-11 0.0000000000000000e+00  -2.7642624982570073e-09 -1.7634072330316466e-10 0.0000000000000000e+00  -2.6539788640979895e-09 -3.2337576142336681e-10 0.0000000000000000e+00  -2.4766804276403555e-09 -4.6122823611693341e-10 0.0000000000000000e+00  -2.2375484044756773e-09 -5.8593441791695450e-10 0.0000000000000000e+00  -1.9437167619790958e-09 -6.9359814236532953e-10 0.0000000000000000e+00  -1.6044348661439733e-09 -7.8017104407772402e-10 0.0000000000000000e+00  -1.2318893550875636e-09 -8.4077710482961909e-10 0.0000000000000000e+00  -8.4456044476125773e-10 -8.6782187624599279e-10 0.0000000000000000e+00  -4.8337599773244411e-10 -8.4766299335701452e-10 0.0000000000000000e+00  -2.4101177320000745e-10 -6.3213552763618746e-10 0.0000000000000000e+00  -2.7410404514988791e-10 1.4427454262025761e-09 0.0000000000000000e+00  -5.0407759738896463e-10 1.2852382276796945e-09 0.0000000000000000e+00  -8.6830663918615488e-10 1.2627046309878604e-09 0.0000000000000000e+00  -1.2476817202464167e-09 1.2029578336566754e-09 0.0000000000000000e+00  -1.6048988092300543e-09 1.1024390795394608e-09 0.0000000000000000e+00  -1.9260925306279101e-09 9.6664847927238031e-10 0.0000000000000000e+00  -2.2014596619908998e-09 8.0181752595851949e-10 0.0000000000000000e+00  -2.4229404748740676e-09 6.1397566573342714e-10 0.0000000000000000e+00  -2.5841918604024746e-09 4.0908662606313878e-10 0.0000000000000000e+00  -2.6806936873435097e-09 1.9316722248563032e-10 0.0000000000000000e+00  -2.7098148108962550e-09 -2.7693565835491939e-11 0.0000000000000000e+00  -2.6708431227495820e-09 -2.4737892969784231e-10 0.0000000000000000e+00  -2.5649855331680058e-09 -4.5981667183201979e-10 0.0000000000000000e+00  -2.3953405236577732e-09 -6.5905331448918422e-10 0.0000000000000000e+00  -2.1668460746558480e-09 -8.3930487971732355e-10 0.0000000000000000e+00  -1.8862160868879764e-09 -9.9495335337491695e-10 0.0000000000000000e+00  -1.5619345520564395e-09 -1.1204524786726298e-09 0.0000000000000000e+00  -1.2046714510340055e-09 -1.2101462201954495e-09 0.0000000000000000e+00  -8.2997821242801762e-10 -1.2580636511632525e-09 0.0000000000000000e+00  -4.7581624873081497e-10 -1.2570757220190831e-09 0.0000000000000000e+00  -2.4398009339887904e-10 -1.0534622412807840e-09 0.0000000000000000e+00  -2.9164393749786433e-10 1.8725050776365003e-09 0.0000000000000000e+00  -5.0439656631279109e-10 1.7048209303552676e-09 0.0000000000000000e+00  -8.6375536265371890e-10 1.6592365636862813e-09 0.0000000000000000e+00  -1.2391918106294871e-09 1.5725160029746890e-09 0.0000000000000000e+00  -1.5908168566560895e-09 1.4386561587835179e-09 0.0000000000000000e+00  -1.9050855567696845e-09 1.2615132350568951e-09 0.0000000000000000e+00  -2.1732940414354374e-09 1.0474494203042495e-09 0.0000000000000000e+00  -2.3882997092833570e-09 8.0360403303431858e-10 0.0000000000000000e+00  -2.5443396864205508e-09 5.3748782381215954e-10 0.0000000000000000e+00  -2.6372371972147760e-09 2.5685872151736095e-10 0.0000000000000000e+00  -2.6645507262574329e-09 -3.0366585316891368e-11 0.0000000000000000e+00  -2.6256446883532998e-09 -3.1621415016287152e-10 0.0000000000000000e+00  -2.5217032969320346e-09 -5.9276688955888331e-10 0.0000000000000000e+00  -2.3556981609585651e-09 -8.5228092641726082e-10 0.0000000000000000e+00  -2.1323106795090015e-09 -1.0872941152465940e-09 0.0000000000000000e+00  -1.8578142131036594e-09 -1.2907249127609779e-09 0.0000000000000000e+00  -1.5399886842078584e-09 -1.4559900596456756e-09 0.0000000000000000e+00  -1.1885355631614040e-09 -1.5772471779336263e-09 0.0000000000000000e+00  -8.1837719139928335e-10 -1.6497238246863271e-09 0.0000000000000000e+00  -4.6975379372042408e-10 -1.6681580105799996e-09 0.0000000000000000e+00  -2.5447112815257799e-10 -1.4789301299442380e-09 0.0000000000000000e+00  -3.1547269164455545e-10 2.2983868719992181e-09 0.0000000000000000e+00  -5.1043240709219560e-10 2.1223820060461415e-09 0.0000000000000000e+00  -8.6706025554314075e-10 2.0568573072929692e-09 0.0000000000000000e+00  -1.2427980655526539e-09 1.9421873291967838e-09 0.0000000000000000e+00  -1.5944754986382927e-09 1.7732937158505537e-09 0.0000000000000000e+00  -1.9077389201674226e-09 1.5537364522064794e-09 0.0000000000000000e+00  -2.1740829099057460e-09 1.2901421248727934e-09 0.0000000000000000e+00  -2.3868432357861910e-09 9.9056254234509062e-10 0.0000000000000000e+00  -2.5406902998782873e-09 6.6385430686011804e-10 0.0000000000000000e+00  -2.6317573233029207e-09 3.1936589934405523e-10 0.0000000000000000e+00  -2.6577934875907908e-09 -3.3271117541112822e-11 0.0000000000000000e+00  -2.6182506429740151e-09 -3.8432034923983103e-10 0.0000000000000000e+00  -2.5143061862497533e-09 -7.2411244727025243e-10 0.0000000000000000e+00  -2.3488305668431098e-09 -1.0432183199900939e-09 0.0000000000000000e+00  -2.1263022812105278e-09 -1.3326299395591135e-09 0.0000000000000000e+00  -1.8526852479113521e-09 -1.5839652772447043e-09 0.0000000000000000e+00  -1.5353838065525622e-09 -1.7897391647999364e-09 0.0000000000000000e+00  -1.1838845728748217e-09 -1.9437647113085439e-09 0.0000000000000000e+00  -8.1382660786195077e-10 -2.0414096942601906e-09 0.0000000000000000e+00  -4.6902781277722804e-10 -2.0773066011281804e-09 0.0000000000000000e+00  -2.7156594149002327e-10 -1.8981224068979443e-09 0.0000000000000000e+00  -3.4516288381993039e-10 2.7252466762044652e-09 0.0000000000000000e+00  -5.2203019992586535e-10 2.5412800392728751e-09 0.0000000000000000e+00  -8.7816562119612230e-10 2.4574645229292994e-09 0.0000000000000000e+00  -1.2571931556464089e-09 2.3150080715704733e-09 0.0000000000000000e+00  -1.6124400239012149e-09 2.1100990274749563e-09 0.0000000000000000e+00  -1.9284400582702440e-09 1.8469921248793870e-09 0.0000000000000000e+00  -2.1964390416776445e-09 1.5329996942379369e-09 0.0000000000000000e+00  -2.4098930064647692e-09 1.1771615849129527e-09 0.0000000000000000e+00  -2.5637051448734271e-09 7.8962499414315558e-10 0.0000000000000000e+00  -2.6542285496029527e-09 3.8124113579466482e-10 0.0000000000000000e+00  -2.6793717479760658e-09 -3.6732777558467875e-11 0.0000000000000000e+00  -2.6386717262685270e-09 -4.5288283953863591e-10 0.0000000000000000e+00  -2.5333159580014682e-09 -8.5586925321906293e-10 0.0000000000000000e+00  -2.3661151514305756e-09 -1.2346571715839034e-09 0.0000000000000000e+00  -2.1414315979002494e-09 -1.5787637243201402e-09 0.0000000000000000e+00  -1.8650913537935366e-09 -1.8785417741649415e-09 0.0000000000000000e+00  -1.5444338671903227e-09 -2.1255275807732958e-09 0.0000000000000000e+00  -1.1892039951576984e-09 -2.3128575961179317e-09 0.0000000000000000e+00  -8.1626645092450846e-10 -2.4353645241412959e-09 0.0000000000000000e+00  -4.7341048501845451e-10 -2.4869598420439215e-09 0.0000000000000000e+00  -2.9439174744513857e-10 -2.3134716925595120e-09 0.0000000000000000e+00  -3.8056713463202753e-10 3.1567298130559744e-09 0.0000000000000000e+00  -5.3819824956905588e-10 2.9648251368966105e-09 0.0000000000000000e+00  -8.9540090377701401e-10 2.8635448101040059e-09 0.0000000000000000e+00  -1.2796988334624980e-09 2.6934301267047666e-09 0.0000000000000000e+00  -1.6405919176758848e-09 2.4518030575531345e-09 0.0000000000000000e+00  -1.9614413781558791e-09 2.1440293192083331e-09 0.0000000000000000e+00  -2.2330934622712302e-09 1.7784708686051625e-09 0.0000000000000000e+00  -2.4489420722554361e-09 1.3653344212789874e-09 0.0000000000000000e+00  -2.6039850186376136e-09 9.1610360582799859e-10 0.0000000000000000e+00  -2.6947168565557817e-09 4.4310952417327965e-10 0.0000000000000000e+00  -2.7191709196537788e-09 -4.0818187688673634e-11 0.0000000000000000e+00  -2.6769616425210063e-09 -5.2265133724431347e-10 0.0000000000000000e+00  -2.5692983411779406e-09 -9.8944025407036815e-10 0.0000000000000000e+00  -2.3989671892176651e-09 -1.4285905042988941e-09 0.0000000000000000e+00  -2.1702867623031616e-09 -1.8281594241590640e-09 0.0000000000000000e+00  -1.8890730910166330e-09 -2.1771903942364025e-09 0.0000000000000000e+00  -1.5627903240619048e-09 -2.4660951932150230e-09 0.0000000000000000e+00  -1.2016587374397262e-09 -2.6870554826660198e-09 0.0000000000000000e+00  -8.2394727307537229e-10 -2.8340272333048916e-09 0.0000000000000000e+00  -4.8177848592166453e-10 -2.9000509790287596e-09 0.0000000000000000e+00  -3.2261399776816984e-10 -2.7290223020194792e-09 0.0000000000000000e+00  -4.2169101638524033e-10 3.5949506049709411e-09 0.0000000000000000e+00  -5.5758086270287185e-10 3.3952690562023530e-09 0.0000000000000000e+00  -9.1624086915795266e-10 3.2768307356685880e-09 0.0000000000000000e+00  -1.3065965335201050e-09 3.0789095609520172e-09 0.0000000000000000e+00  -1.6738801026488350e-09 2.7998408047419526e-09 0.0000000000000000e+00  -2.0002663477494110e-09 2.4462680737691456e-09 0.0000000000000000e+00  -2.2761965167301723e-09 2.0278477019325093e-09 0.0000000000000000e+00  -2.4949619881941330e-09 1.5561304907154364e-09 0.0000000000000000e+00  -2.6516111434449854e-09 1.0440223518121550e-09 0.0000000000000000e+00  -2.7427516905105737e-09 5.0534884785368734e-10 0.0000000000000000e+00  -2.7665289557659944e-09 -4.5517027523240856e-11 0.0000000000000000e+00  -2.7226307454257251e-09 -5.9398103654306150e-10 0.0000000000000000e+00  -2.6122895070092160e-09 -1.1255298960570921e-09 0.0000000000000000e+00  -2.4382769965633142e-09 -1.6260341975327859e-09 0.0000000000000000e+00  -2.2048955291528329e-09 -2.0820748293345938e-09 0.0000000000000000e+00  -1.9180027968701957e-09 -2.4813087254314843e-09 0.0000000000000000e+00  -1.5852580932717753e-09 -2.8128746375893376e-09 0.0000000000000000e+00  -1.2174249133102907e-09 -3.0677976008114722e-09 0.0000000000000000e+00  -8.3425960956625222e-10 -3.2389827197755959e-09 0.0000000000000000e+00  -4.9266516686705633e-10 -3.3185840900289945e-09 0.0000000000000000e+00  -3.5612113916228955e-10 -3.1478569084738485e-09 0.0000000000000000e+00  -4.6863304209382105e-10 4.0402845707286323e-09 0.0000000000000000e+00  -5.7855854292706713e-10 3.8334174067481603e-09 0.0000000000000000e+00  -9.3753392019979520e-10 3.6977711084510273e-09 0.0000000000000000e+00  -1.3332553247382130e-09 3.4716225808188174e-09 0.0000000000000000e+00  -1.7061949532460131e-09 3.1542726677539319e-09 0.0000000000000000e+00  -2.0373326351113214e-09 2.7537491306094559e-09 0.0000000000000000e+00  -2.3167762273002888e-09 2.2811745232203814e-09 0.0000000000000000e+00  -2.5377778967706369e-09 1.7495934458420981e-09 0.0000000000000000e+00  -2.6954849030626827e-09 1.1734203154391044e-09 0.0000000000000000e+00  -2.7866548738366168e-09 5.6799535923679924e-10 0.0000000000000000e+00  -2.8095684510195582e-09 -5.0793819131672052e-11 0.0000000000000000e+00  -2.7639923677818661e-09 -6.6683997516005028e-10 0.0000000000000000e+00  -2.6511688573985376e-09 -1.2641170822070920e-09 0.0000000000000000e+00  -2.4738275796499706e-09 -1.8269844941527217e-09 0.0000000000000000e+00  -2.2362212764247900e-09 -2.3405228191180930e-09 0.0000000000000000e+00  -1.9442182658649130e-09 -2.7909196179688577e-09 0.0000000000000000e+00  -1.6056465357913229e-09 -3.1659035104621286e-09 0.0000000000000000e+00  -1.2317952963715098e-09 -3.4551837801496973e-09 0.0000000000000000e+00  -8.4396652779512287e-10 -3.6504998487456155e-09 0.0000000000000000e+00  -5.0434806369525305e-10 -3.7431267222981075e-09 0.0000000000000000e+00  -3.9490990946275213e-10 -3.5714977651014762e-09 0.0000000000000000e+00  -5.2155176903906475e-10 4.4911182482719783e-09 0.0000000000000000e+00  -5.9922700056722347e-10 4.2783159860193053e-09 0.0000000000000000e+00  -9.5549649839770584e-10 4.1251686422991823e-09 0.0000000000000000e+00  -1.3540748093673787e-09 3.8701595768094668e-09 0.0000000000000000e+00  -1.7301760049388805e-09 3.5135960188535529e-09 0.0000000000000000e+00  -2.0635910287932636e-09 3.0650106403815771e-09 0.0000000000000000e+00  -2.3442269577128448e-09 2.5371447069090029e-09 0.0000000000000000e+00  -2.5654485517838167e-09 1.9446657442755995e-09 0.0000000000000000e+00  -2.7226402989734491e-09 1.3035651085432948e-09 0.0000000000000000e+00  -2.8128188156777099e-09 6.3069661575035510e-10 0.0000000000000000e+00  -2.8344677873686486e-09 -5.6594568561494667e-11 0.0000000000000000e+00  -2.7874512000730445e-09 -7.4077418443588035e-10 0.0000000000000000e+00  -2.6729888994401319e-09 -1.4043858591128621e-09 0.0000000000000000e+00  -2.4936929884522170e-09 -2.0303253797787342e-09 0.0000000000000000e+00  -2.2536618401122850e-09 -2.6021627451389719e-09 0.0000000000000000e+00  -1.9586571817386590e-09 -3.1045387717046867e-09 0.0000000000000000e+00  -1.6165633987888276e-09 -3.5236387348907876e-09 0.0000000000000000e+00  -1.2391149013165282e-09 -3.8477023432308289e-09 0.0000000000000000e+00  -8.4920184023076101e-10 -4.0671872004173526e-09 0.0000000000000000e+00  -5.1482335836937375e-10 -4.1724814127810386e-09 0.0000000000000000e+00  -4.3904199886746084e-10 -3.9996541150308726e-09 0.0000000000000000e+00  -5.8064666108298360e-10 4.9435171281193864e-09 0.0000000000000000e+00  -6.1732976693210321e-10 4.7269095510720071e-09 0.0000000000000000e+00  -9.6560041151391074e-10 4.5558067647797910e-09 0.0000000000000000e+00  -1.3623052469465173e-09 4.2711631778040779e-09 0.0000000000000000e+00  -1.7369251398412907e-09 3.8744352215686388e-09 0.0000000000000000e+00  -2.0681042533904976e-09 3.3768346775760609e-09 0.0000000000000000e+00  -2.3457531091618953e-09 2.7928928911568656e-09 0.0000000000000000e+00  -2.5635960796538915e-09 2.1390235511074172e-09 0.0000000000000000e+00  -2.7174918171271212e-09 1.4328371736375422e-09 0.0000000000000000e+00  -2.8049074045902109e-09 6.9265502917091755e-10 0.0000000000000000e+00  -2.8246495349462914e-09 -6.2837442610790910e-11 0.0000000000000000e+00  -2.7767124071920910e-09 -8.1483279105942634e-10 0.0000000000000000e+00  -2.6622369226686191e-09 -1.5445918931643514e-09 0.0000000000000000e+00  -2.4835827392207591e-09 -2.2336470890096900e-09 0.0000000000000000e+00  -2.2445036535896162e-09 -2.8640799767120202e-09 0.0000000000000000e+00  -1.9504401643222110e-09 -3.4189174385743383e-09 0.0000000000000000e+00  -1.6091294645602834e-09 -3.8826578578551570e-09 0.0000000000000000e+00  -1.2326050084772273e-09 -4.2418900752203553e-09 0.0000000000000000e+00  -8.4536252207516188e-10 -4.4856336145296337e-09 0.0000000000000000e+00  -5.2173731700713569e-10 -4.6033493917997471e-09 0.0000000000000000e+00  -4.8862225061924861e-10 -4.4299618522691897e-09 0.0000000000000000e+00  -6.4614839454849657e-10 5.3907944444707765e-09 0.0000000000000000e+00  -6.3016778196021027e-10 5.1736286946927650e-09 0.0000000000000000e+00  -9.6240120529726431e-10 4.9840104296159745e-09 0.0000000000000000e+00  -1.3497826157606844e-09 4.6688815765749289e-09 0.0000000000000000e+00  -1.7156270248266650e-09 4.2311148439320390e-09 0.0000000000000000e+00  -2.0375349529613567e-09 3.6838616836352025e-09 0.0000000000000000e+00  -2.3057221061391774e-09 3.0436644078157831e-09 0.0000000000000000e+00  -2.5146390755742908e-09 2.3288142930831758e-09 0.0000000000000000e+00  -2.6609762503243500e-09 1.5585497036362296e-09 0.0000000000000000e+00  -2.7429429731981841e-09 7.5254262721521003e-10 0.0000000000000000e+00  -2.7598522087241561e-09 -6.9396345838044484e-11 0.0000000000000000e+00  -2.7118779263683397e-09 -8.8745118704364625e-10 0.0000000000000000e+00  -2.5999932708918948e-09 -1.6818546322574579e-09 0.0000000000000000e+00  -2.4260946843553450e-09 -2.4329625475116027e-09 0.0000000000000000e+00  -2.1932938535324884e-09 -3.1214439764335432e-09 0.0000000000000000e+00  -1.9063747731629458e-09 -3.7286579287907268e-09 0.0000000000000000e+00  -1.5726115845660608e-09 -4.2372453863637553e-09 0.0000000000000000e+00  -1.2041074440270364e-09 -4.6319035349525676e-09 0.0000000000000000e+00  -8.2694103955029522e-10 -4.8999827606432960e-09 0.0000000000000000e+00  -5.2229349989203405e-10 -5.0299272283728469e-09 0.0000000000000000e+00  -5.4378543071041947e-10 -4.8576425758320562e-09 0.0000000000000000e+00  -7.1831919463954539e-10 5.8229655309659397e-09 0.0000000000000000e+00  -6.3449333166013442e-10 5.6098784059432583e-09 0.0000000000000000e+00  -9.3932390390146707e-10 5.4011088561274502e-09 0.0000000000000000e+00  -1.3065930970222704e-09 5.0546110433727089e-09 0.0000000000000000e+00  -1.6530758729026606e-09 4.5751036779155527e-09 0.0000000000000000e+00  -1.95552256