<?xml version="1.0"?>
<VTKFile type="UnstructuredGrid"  version="0.1"  >
<UnstructuredGrid>
<Piece  NumberOfPoints="651" NumberOfCells="1200">
<Points>
<DataArray  type="Float64"  NumberOfComponents="3"  format="ascii">0 0 0  50000 0 0  100000 0 0  150000 0 0  200000 0 0  250000 0 0  300000 0 0  350000 0 0  400000 0 0  450000 0 0  500000 0 0  550000 0 0  600000 0 0  650000 0 0  700000 0 0  750000 0 0  800000 0 0  850000 0 0  900000 0 0  950000 0 0  1000000 0 0  0 50000 0  50000 50000 0  100000 50000 0  150000 50000 0  200000 50000 0  250000 50000 0  300000 50000 0  350000 50000 0  400000 50000 0  450000 50000 0  500000 50000 0  550000 50000 0  600000 50000 0  650000 50000 0  700000 50000 0  750000 50000 0  800000 50000 0  850000 50000 0  900000 50000 0  950000 50000 0  1000000 50000 0  0 100000 0  50000 100000 0  100000 100000 0  150000 100000 0  200000 100000 0  250000 100000 0  300000 100000 0  350000 100000 0  400000 100000 0  450000 100000 0  500000 100000 0  550000 100000 0  600000 100000 0  650000 100000 0  700000 100000 0  750000 100000 0  800000 100000 0  850000 100000 0  900000 100000 0  950000 100000 0  1000000 100000 0  0 150000 0  50000 150000 0  100000 150000 0  150000 150000 0  200000 150000 0  250000 150000 0  300000 150000 0  350000 150000 0  400000 150000 0  450000 150000 0  500000 150000 0  550000 150000 0  600000 150000 0  650000 150000 0  700000 150000 0  750000 150000 0  800000 150000 0  850000 150000 0  900000 150000 0  950000 150000 0  1000000 150000 0  0 200000 0  50000 200000 0  100000 200000 0  150000 200000 0  200000 200000 0  250000 200000 0  300000 200000 0  350000 200000 0  400000 200000 0  450000 200000 0  500000 200000 0  550000 200000 0  600000 200000 0  650000 200000 0  700000 200000 0  750000 200000 0  800000 200000 0  850000 200000 0  900000 200000 0  950000 200000 0  1000000 200000 0  0 250000 0  50000 250000 0  100000 250000 0  150000 250000 0  200000 250000 0  250000 250000 0  300000 250000 0  350000 250000 0  400000 250000 0  450000 250000 0  500000 250000 0  550000 250000 0  600000 250000 0  650000 250000 0  700000 250000 0  750000 250000 0  800000 250000 0  850000 250000 0  900000 250000 0  950000 250000 0  1000000 250000 0  0 300000 0  50000 300000 0  100000 300000 0  150000 300000 0  200000 300000 0  250000 300000 0  300000 300000 0  350000 300000 0  400000 300000 0  450000 300000 0  500000 300000 0  550000 300000 0  600000 300000 0  650000 300000 0  700000 300000 0  750000 300000 0  800000 300000 0  850000 300000 0  900000 300000 0  950000 300000 0  1000000 300000 0  0 350000 0  50000 350000 0  100000 350000 0  150000 350000 0  200000 350000 0  250000 350000 0  300000 350000 0  350000 350000 0  400000 350000 0  450000 350000 0  500000 350000 0  550000 350000 0  600000 350000 0  650000 350000 0  700000 350000 0  750000 350000 0  800000 350000 0  850000 350000 0  900000 350000 0  950000 350000 0  1000000 350000 0  0 400000 0  50000 400000 0  100000 400000 0  150000 400000 0  200000 400000 0  250000 400000 0  300000 400000 0  350000 400000 0  400000 400000 0  450000 400000 0  500000 400000 0  550000 400000 0  600000 400000 0  650000 400000 0  700000 400000 0  750000 400000 0  800000 400000 0  850000 400000 0  900000 400000 0  950000 400000 0  1000000 400000 0  0 450000 0  50000 450000 0  100000 450000 0  150000 450000 0  200000 450000 0  250000 450000 0  300000 450000 0  350000 450000 0  400000 450000 0  450000 450000 0  500000 450000 0  550000 450000 0  600000 450000 0  650000 450000 0  700000 450000 0  750000 450000 0  800000 450000 0  850000 450000 0  900000 450000 0  950000 450000 0  1000000 450000 0  0 500000 0  50000 500000 0  100000 500000 0  150000 500000 0  200000 500000 0  250000 500000 0  300000 500000 0  350000 500000 0  400000 500000 0  450000 500000 0  500000 500000 0  550000 500000 0  600000 500000 0  650000 500000 0  700000 500000 0  750000 500000 0  800000 500000 0  850000 500000 0  900000 500000 0  950000 500000 0  1000000 500000 0  0 550000 0  50000 550000 0  100000 550000 0  150000 550000 0  200000 550000 0  250000 550000 0  300000 550000 0  350000 550000 0  400000 550000 0  450000 550000 0  500000 550000 0  550000 550000 0  600000 550000 0  650000 550000 0  700000 550000 0  750000 550000 0  800000 550000 0  850000 550000 0  900000 550000 0  950000 550000 0  1000000 550000 0  0 600000 0  50000 600000 0  100000 600000 0  150000 600000 0  200000 600000 0  250000 600000 0  300000 600000 0  350000 600000 0  400000 600000 0  450000 600000 0  500000 600000 0  550000 600000 0  600000 600000 0  650000 600000 0  700000 600000 0  750000 600000 0  800000 600000 0  850000 600000 0  900000 600000 0  950000 600000 0  1000000 600000 0  0 650000 0  50000 650000 0  100000 650000 0  150000 650000 0  200000 650000 0  250000 650000 0  300000 650000 0  350000 650000 0  400000 650000 0  450000 650000 0  500000 650000 0  550000 650000 0  600000 650000 0  650000 650000 0  700000 650000 0  750000 650000 0  800000 650000 0  850000 650000 0  900000 650000 0  950000 650000 0  1000000 650000 0  0 700000 0  50000 700000 0  100000 700000 0  150000 700000 0  200000 700000 0  250000 700000 0  300000 700000 0  350000 700000 0  400000 700000 0  450000 700000 0  500000 700000 0  550000 700000 0  600000 700000 0  650000 700000 0  700000 700000 0  750000 700000 0  800000 700000 0  850000 700000 0  900000 700000 0  950000 700000 0  1000000 700000 0  0 750000 0  50000 750000 0  100000 750000 0  150000 750000 0  200000 750000 0  250000 750000 0  300000 750000 0  350000 750000 0  400000 750000 0  450000 750000 0  500000 750000 0  550000 750000 0  600000 750000 0  650000 750000 0  700000 750000 0  750000 750000 0  800000 750000 0  850000 750000 0  900000 750000 0  950000 750000 0  1000000 750000 0  0 800000 0  50000 800000 0  100000 800000 0  150000 800000 0  200000 800000 0  250000 800000 0  300000 800000 0  350000 800000 0  400000 800000 0  450000 800000 0  500000 800000 0  550000 800000 0  600000 800000 0  650000 800000 0  700000 800000 0  750000 800000 0  800000 800000 0  850000 800000 0  900000 800000 0  950000 800000 0  1000000 800000 0  0 850000 0  50000 850000 0  100000 850000 0  150000 850000 0  200000 850000 0  250000 850000 0  300000 850000 0  350000 850000 0  400000 850000 0  450000 850000 0  500000 850000 0  550000 850000 0  600000 850000 0  650000 850000 0  700000 850000 0  750000 850000 0  800000 850000 0  850000 850000 0  900000 850000 0  950000 850000 0  1000000 850000 0  0 900000 0  50000 900000 0  100000 900000 0  150000 900000 0  200000 900000 0  250000 900000 0  300000 900000 0  350000 900000 0  400000 900000 0  450000 900000 0  500000 900000 0  550000 900000 0  600000 900000 0  650000 900000 0  700000 900000 0  750000 900000 0  800000 900000 0  850000 900000 0  900000 900000 0  950000 900000 0  1000000 900000 0  0 950000 0  50000 950000 0  100000 950000 0  150000 950000 0  200000 950000 0  250000 950000 0  300000 950000 0  350000 950000 0  400000 950000 0  450000 950000 0  500000 950000 0  550000 950000 0  600000 950000 0  650000 950000 0  700000 950000 0  750000 950000 0  800000 950000 0  850000 950000 0  900000 950000 0  950000 950000 0  1000000 950000 0  0 1000000 0  50000 1000000 0  100000 1000000 0  150000 1000000 0  200000 1000000 0  250000 1000000 0  300000 1000000 0  350000 1000000 0  400000 1000000 0  450000 1000000 0  500000 1000000 0  550000 1000000 0  600000 1000000 0  650000 1000000 0  700000 1000000 0  750000 1000000 0  800000 1000000 0  850000 1000000 0  900000 1000000 0  950000 1000000 0  1000000 1000000 0  0 1050000 0  50000 1050000 0  100000 1050000 0  150000 1050000 0  200000 1050000 0  250000 1050000 0  300000 1050000 0  350000 1050000 0  400000 1050000 0  450000 1050000 0  500000 1050000 0  550000 1050000 0  600000 1050000 0  650000 1050000 0  700000 1050000 0  750000 1050000 0  800000 1050000 0  850000 1050000 0  900000 1050000 0  950000 1050000 0  1000000 1050000 0  0 1100000 0  50000 1100000 0  100000 1100000 0  150000 1100000 0  200000 1100000 0  250000 1100000 0  300000 1100000 0  350000 1100000 0  400000 1100000 0  450000 1100000 0  500000 1100000 0  550000 1100000 0  600000 1100000 0  650000 1100000 0  700000 1100000 0  750000 1100000 0  800000 1100000 0  850000 1100000 0  900000 1100000 0  950000 1100000 0  1000000 1100000 0  0 1150000 0  50000 1150000 0  100000 1150000 0  150000 1150000 0  200000 1150000 0  250000 1150000 0  300000 1150000 0  350000 1150000 0  400000 1150000 0  450000 1150000 0  500000 1150000 0  550000 1150000 0  600000 1150000 0  650000 1150000 0  700000 1150000 0  750000 1150000 0  800000 1150000 0  850000 1150000 0  900000 1150000 0  950000 1150000 0  1000000 1150000 0  0 1200000 0  50000 1200000 0  100000 1200000 0  150000 1200000 0  200000 1200000 0  250000 1200000 0  300000 1200000 0  350000 1200000 0  400000 1200000 0  450000 1200000 0  500000 1200000 0  550000 1200000 0  600000 1200000 0  650000 1200000 0  700000 1200000 0  750000 1200000 0  800000 1200000 0  850000 1200000 0  900000 1200000 0  950000 1200000 0  1000000 1200000 0  0 1250000 0  50000 1250000 0  100000 1250000 0  150000 1250000 0  200000 1250000 0  250000 1250000 0  300000 1250000 0  350000 1250000 0  400000 1250000 0  450000 1250000 0  500000 1250000 0  550000 1250000 0  600000 1250000 0  650000 1250000 0  700000 1250000 0  750000 1250000 0  800000 1250000 0  850000 1250000 0  900000 1250000 0  950000 1250000 0  1000000 1250000 0  0 1300000 0  50000 1300000 0  100000 1300000 0  150000 1300000 0  200000 1300000 0  250000 1300000 0  300000 1300000 0  350000 1300000 0  400000 1300000 0  450000 1300000 0  500000 1300000 0  550000 1300000 0  600000 1300000 0  650000 1300000 0  700000 1300000 0  750000 1300000 0  800000 1300000 0  850000 1300000 0  900000 1300000 0  950000 1300000 0  1000000 1300000 0  0 1350000 0  50000 1350000 0  100000 1350000 0  150000 1350000 0  200000 1350000 0  250000 1350000 0  300000 1350000 0  350000 1350000 0  400000 1350000 0  450000 1350000 0  500000 1350000 0  550000 1350000 0  600000 1350000 0  650000 1350000 0  700000 135
[...]
<PointData  Vectors="f_15"> 
<DataArray  type="Float64"  Name="f_15"  NumberOfComponents="3" format="ascii">-3.2979005757933391e-10 2.6576867740198117e-10 0.0000000000000000e+00  -6.0345092464554681e-10 2.1355840400946568e-10 0.0000000000000000e+00  -1.0897164401590771e-09 1.9245228564844703e-10 0.0000000000000000e+00  -1.5596034078889926e-09 1.7417466806172014e-10 0.0000000000000000e+00  -1.9898872393996813e-09 1.5276176107300998e-10 0.0000000000000000e+00  -2.3680321555398838e-09 1.2758089678193395e-10 0.0000000000000000e+00  -2.6838465463223717e-09 9.8897778105466600e-11 0.0000000000000000e+00  -2.9290865963080485e-09 6.7285656225048245e-11 0.0000000000000000e+00  -3.0974485420289442e-09 3.3486234565680170e-11 0.0000000000000000e+00  -3.1846793845131921e-09 -1.6607870014298905e-12 0.0000000000000000e+00  -3.1886681006507659e-09 -3.7263435469160514e-11 0.0000000000000000e+00  -3.1094899580838667e-09 -7.2412898209542328e-11 0.0000000000000000e+00  -2.9493989066347593e-09 -1.0621486209638628e-10 0.0000000000000000e+00  -2.7127681754065040e-09 -1.3781997432658721e-10 0.0000000000000000e+00  -2.4059899504655106e-09 -1.6645760516430564e-10 0.0000000000000000e+00  -2.0374005043638577e-09 -1.9148694575217993e-10 0.0000000000000000e+00  -1.6175786212536400e-09 -2.1251765192048173e-10 0.0000000000000000e+00  -1.1616093401061730e-09 -2.2974586730587935e-10 0.0000000000000000e+00  -6.9975924764904273e-10 -2.4363027056809397e-10 0.0000000000000000e+00  -3.2277833934543176e-10 -2.3624270142212307e-10 0.0000000000000000e+00  -1.6403128382055321e-10 -1.5356184155010073e-10 0.0000000000000000e+00  -2.8088998878455570e-10 5.1774982221291806e-10 0.0000000000000000e+00  -4.9453264997527512e-10 4.7867841681317113e-10 0.0000000000000000e+00  -8.7358405175389147e-10 4.9775683096170126e-10 0.0000000000000000e+00  -1.3011630063968604e-09 4.7331878691550984e-10 0.0000000000000000e+00  -1.7091967070334643e-09 4.3031332561796214e-10 0.0000000000000000e+00  -2.0759693798761954e-09 3.7397744438348340e-10 0.0000000000000000e+00  -2.3898861081077939e-09 3.0703199350093797e-10 0.0000000000000000e+00  -2.6420939387631633e-09 2.3169961170099633e-10 0.0000000000000000e+00  -2.8257652978974574e-09 1.5015794323216717e-10 0.0000000000000000e+00  -2.9360742462183162e-09 6.4645964353625425e-11 0.0000000000000000e+00  -2.9702274682087516e-09 -2.2538078730733252e-11 0.0000000000000000e+00  -2.9274936825477188e-09 -1.0907205969744987e-10 0.0000000000000000e+00  -2.8092086041900086e-09 -1.9265475151510184e-10 0.0000000000000000e+00  -2.6187485241123196e-09 -2.7105051187178798e-10 0.0000000000000000e+00  -2.3614822530299178e-09 -3.4212597922499713e-10 0.0000000000000000e+00  -2.0447476525979089e-09 -4.0386412819549033e-10 0.0000000000000000e+00  -1.6780361951799203e-09 -4.5430286637725775e-10 0.0000000000000000e+00  -1.2741756827283415e-09 -4.9108738375740829e-10 0.0000000000000000e+00  -8.5487468166139767e-10 -5.0869960855537180e-10 0.0000000000000000e+00  -4.7399632026010401e-10 -4.8616850460359752e-10 0.0000000000000000e+00  -2.5449050974707119e-10 -3.0045591711194913e-10 0.0000000000000000e+00  -2.7435045725139936e-10 9.6501418513511384e-10 0.0000000000000000e+00  -5.0406830262751758e-10 8.5923448604185669e-10 0.0000000000000000e+00  -8.6351486180326561e-10 8.7629769106898609e-10 0.0000000000000000e+00  -1.2535961875797885e-09 8.3915284164022717e-10 0.0000000000000000e+00  -1.6291559155404170e-09 7.6788778863858737e-10 0.0000000000000000e+00  -1.9699148738697427e-09 6.7135774689623869e-10 0.0000000000000000e+00  -2.2628870173551994e-09 5.5503475561156408e-10 0.0000000000000000e+00  -2.4989144090452843e-09 4.2326593684942242e-10 0.0000000000000000e+00  -2.6712250705797141e-09 2.8011910825005891e-10 0.0000000000000000e+00  -2.7751003167750418e-09 1.2966465873541183e-10 0.0000000000000000e+00  -2.8078247454983642e-09 -2.3969070321375622e-11 0.0000000000000000e+00  -2.7686814957841062e-09 -1.7662627642294687e-10 0.0000000000000000e+00  -2.6589430620187085e-09 -3.2418252360443008e-10 0.0000000000000000e+00  -2.4818463331595641e-09 -4.6260488467836036e-10 0.0000000000000000e+00  -2.2425589018672157e-09 -5.8799011958236423e-10 0.0000000000000000e+00  -1.9481770947210054e-09 -6.9653950705072056e-10 0.0000000000000000e+00  -1.6079040294536389e-09 -7.8436343851718496e-10 0.0000000000000000e+00  -1.2339579362746139e-09 -8.4681517475942599e-10 0.0000000000000000e+00  -8.4529171246543823e-10 -8.7655650506072308e-10 0.0000000000000000e+00  -4.8562962930836535e-10 -8.5946545327214507e-10 0.0000000000000000e+00  -2.6890704235736699e-10 -6.4505810085724042e-10 0.0000000000000000e+00  -2.8206285270995844e-10 1.4054874778314797e-09 0.0000000000000000e+00  -5.0386369569792648e-10 1.2713409775571325e-09 0.0000000000000000e+00  -8.5816199906314318e-10 1.2681552660158626e-09 0.0000000000000000e+00  -1.2336823337488275e-09 1.2125162497930399e-09 0.0000000000000000e+00  -1.5907885709322304e-09 1.1117915077847347e-09 0.0000000000000000e+00  -1.9137922047208097e-09 9.7470301366842724e-10 0.0000000000000000e+00  -2.1915651928629519e-09 8.0841579646019450e-10 0.0000000000000000e+00  -2.4154123692085942e-09 6.1921941164681642e-10 0.0000000000000000e+00  -2.5787411534313372e-09 4.1312706983531529e-10 0.0000000000000000e+00  -2.6769524219749102e-09 1.9613859568667466e-10 0.0000000000000000e+00  -2.7074028679878573e-09 -2.5692346726542405e-11 0.0000000000000000e+00  -2.6693917929510615e-09 -2.4628950631188958e-10 0.0000000000000000e+00  -2.5641427025407364e-09 -4.5962616404717678e-10 0.0000000000000000e+00  -2.3947682877898301e-09 -6.5980392498623411e-10 0.0000000000000000e+00  -2.1662181694908731e-09 -8.4111054902413902e-10 0.0000000000000000e+00  -1.8852259550023136e-09 -9.9802218914563148e-10 0.0000000000000000e+00  -1.5603381013234601e-09 -1.1251010054151260e-09 0.0000000000000000e+00  -1.2024275538056950e-09 -1.2167561189533331e-09 0.0000000000000000e+00  -8.2774747474160985e-10 -1.2668576469113316e-09 0.0000000000000000e+00  -4.7697519330872309e-10 -1.2670639496416978e-09 0.0000000000000000e+00  -2.7132177357273640e-10 -1.0642189909126690e-09 0.0000000000000000e+00  -2.9734451110469258e-10 1.8368121991435931e-09 0.0000000000000000e+00  -5.0542611455571606e-10 1.6857811935185123e-09 0.0000000000000000e+00  -8.5699782606963445e-10 1.6601622346837162e-09 0.0000000000000000e+00  -1.2282179868499166e-09 1.5807076588590089e-09 0.0000000000000000e+00  -1.5779077034071767e-09 1.4488313626125157e-09 0.0000000000000000e+00  -1.8921101106729630e-09 1.2714031453138454e-09 0.0000000000000000e+00  -2.1613129841413934e-09 1.0561828135988809e-09 0.0000000000000000e+00  -2.3777445677231084e-09 8.1091368723095194e-10 0.0000000000000000e+00  -2.5352671518868920e-09 5.4335142936802765e-10 0.0000000000000000e+00  -2.6295076116778344e-09 2.6133998164196614e-10 0.0000000000000000e+00  -2.6579328782729852e-09 -2.7188198814045584e-11 0.0000000000000000e+00  -2.6198729477918572e-09 -3.1427609680525582e-10 0.0000000000000000e+00  -2.5165086220275558e-09 -5.9204151631807568e-10 0.0000000000000000e+00  -2.3508275888749438e-09 -8.5278819604134825e-10 0.0000000000000000e+00  -2.1275466034448949e-09 -1.0891109903288825e-09 0.0000000000000000e+00  -1.8530055913325509e-09 -1.2939851045729343e-09 0.0000000000000000e+00  -1.5351115073409255e-09 -1.4608536634287926e-09 0.0000000000000000e+00  -1.1838211959078537e-09 -1.5837958633529988e-09 0.0000000000000000e+00  -8.1470874686825758e-10 -1.6577194239131403e-09 0.0000000000000000e+00  -4.7026410458301874e-10 -1.6761498697994959e-09 0.0000000000000000e+00  -2.8105723819254741e-10 -1.4874286036354177e-09 0.0000000000000000e+00  -3.1884811665668386e-10 2.2643495281102973e-09 0.0000000000000000e+00  -5.1204199793777384e-10 2.1004418688676167e-09 0.0000000000000000e+00  -8.6272594049108078e-10 2.0535776184355872e-09 0.0000000000000000e+00  -1.2348235678502290e-09 1.9476268593717773e-09 0.0000000000000000e+00  -1.5839608357704779e-09 1.7824738158800795e-09 0.0000000000000000e+00  -1.8960073954136660e-09 1.5638670649297715e-09 0.0000000000000000e+00  -2.1621656882877264e-09 1.2997881912990300e-09 0.0000000000000000e+00  -2.3753649900103551e-09 9.9905002008300454e-10 0.0000000000000000e+00  -2.5299435106821806e-09 6.7091031884029587e-10 0.0000000000000000e+00  -2.6218129008918849e-09 3.2491541154681092e-10 0.0000000000000000e+00  -2.6485926743990871e-09 -2.9215742003968756e-11 0.0000000000000000e+00  -2.6096701936263242e-09 -3.8171902284663607e-10 0.0000000000000000e+00  -2.5062034325002296e-09 -7.2293005341276597e-10 0.0000000000000000e+00  -2.3410776491508483e-09 -1.0434417528627538e-09 0.0000000000000000e+00  -2.1188184745391999e-09 -1.3342719659383404e-09 0.0000000000000000e+00  -1.8454754649598862e-09 -1.5870494815597183e-09 0.0000000000000000e+00  -1.5285910578780524e-09 -1.7942510480459870e-09 0.0000000000000000e+00  -1.1778781237229645e-09 -1.9495455750182046e-09 0.0000000000000000e+00  -8.0950720548387604e-10 -2.0479752187483963e-09 0.0000000000000000e+00  -4.6916177337289635e-10 -2.0829753598807696e-09 0.0000000000000000e+00  -2.9722010828388287e-10 -1.9043385163429784e-09 0.0000000000000000e+00  -3.4611447640822509e-10 2.6929798791542697e-09 0.0000000000000000e+00  -5.2388842774288257e-10 2.5178243462195129e-09 0.0000000000000000e+00  -8.7558636723794822e-10 2.4510519631169325e-09 0.0000000000000000e+00  -1.2517755357342792e-09 2.3175988785100239e-09 0.0000000000000000e+00  -1.6045174897743575e-09 2.1174516431389691e-09 0.0000000000000000e+00  -1.9187693850429568e-09 1.8563037635723810e-09 0.0000000000000000e+00  -2.1858021803539008e-09 1.5425556282929108e-09 0.0000000000000000e+00  -2.3988943710785645e-09 1.1859903689577261e-09 0.0000000000000000e+00  -2.5527329882895448e-09 7.9722279945737575e-10 0.0000000000000000e+00  -2.6434915922824273e-09 3.8737988137159785e-10 0.0000000000000000e+00  -2.6689555282632818e-09 -3.2128427840226827e-11 0.0000000000000000e+00  -2.6285918395000630e-09 -4.4981057809649246e-10 0.0000000000000000e+00  -2.5235627309542702e-09 -8.5429274691566404e-10 0.0000000000000000e+00  -2.3566915401867351e-09 -1.2345277774038007e-09 0.0000000000000000e+00  -2.1323880459243034e-09 -1.5800234154737932e-09 0.0000000000000000e+00  -1.8565605006270118e-09 -1.8811047308006676e-09 0.0000000000000000e+00  -1.5366668023130092e-09 -2.1292337183611440e-09 0.0000000000000000e+00  -1.1826249900934945e-09 -2.3173893545987410e-09 0.0000000000000000e+00  -8.1172701814370539e-10 -2.4401183500388079e-09 0.0000000000000000e+00  -4.7331460862746361e-10 -2.4901111670754333e-09 0.0000000000000000e+00  -3.1896546599705239e-10 -2.3174066846544331e-09 0.0000000000000000e+00  -3.7898450698078301e-10 3.1263872929558817e-09 0.0000000000000000e+00  -5.4014223153447180e-10 2.9407916202427510e-09 0.0000000000000000e+00  -8.9417139034886375e-10 2.8550028199368050e-09 0.0000000000000000e+00  -1.2764287946475774e-09 2.6935755411594277e-09 0.0000000000000000e+00  -1.6351334544975650e-09 2.4571195375050755e-09 0.0000000000000000e+00  -1.9541003398988833e-09 2.1519482273821367e-09 0.0000000000000000e+00  -2.2243558539068653e-09 1.7872314341067096e-09 0.0000000000000000e+00  -2.4392828225028666e-09 1.3738149787529416e-09 0.0000000000000000e+00  -2.5937833094814340e-09 9.2364332162404426e-10 0.0000000000000000e+00  -2.6842425827558620e-09 4.4935673868798752e-10 0.0000000000000000e+00  -2.7086056344090509e-09 -3.6018786038724214e-11 0.0000000000000000e+00  -2.6664315640194606e-09 -5.1933564327600953e-10 0.0000000000000000e+00  -2.5589089716011607e-09 -9.8757290981046508e-10 0.0000000000000000e+00  -2.3888359712546728e-09 -1.4280902162319251e-09 0.0000000000000000e+00  -2.1605729037933099e-09 -1.8289044502439405e-09 0.0000000000000000e+00  -1.8800036082159620e-09 -2.1790045377861516e-09 0.0000000000000000e+00  -1.5546815657559900e-09 -2.4687133803322251e-09 0.0000000000000000e+00  -1.1949507449988531e-09 -2.6900664699108822e-09 0.0000000000000000e+00  -8.1943002219887398e-10 -2.8367802438619959e-09 0.0000000000000000e+00  -4.8152288886464556e-10 -2.9006259604009414e-09 0.0000000000000000e+00  -3.4598730342895572e-10 -2.7306917675657382e-09 0.0000000000000000e+00  -4.1746701356973291e-10 3.5667335527044311e-09 0.0000000000000000e+00  -5.5954227083930635e-10 3.3713828327441518e-09 0.0000000000000000e+00  -9.1614009122326932e-10 3.2669923323772955e-09 0.0000000000000000e+00  -1.3051811106017079e-09 3.0771493896279129e-09 0.0000000000000000e+00  -1.6706912453675703e-09 2.8032369178393081e-09 0.0000000000000000e+00  -1.9952790116866383e-09 2.4525663211526920e-09 0.0000000000000000e+00  -2.2696287192064412e-09 2.0353839036248759e-09 0.0000000000000000e+00  -2.4871237217522552e-09 1.5637582469499401e-09 0.0000000000000000e+00  -2.6428132885882185e-09 1.0510099032441728e-09 0.0000000000000000e+00  -2.7332672803608016e-09 5.1127174618388173e-10 0.0000000000000000e+00  -2.7565882817332421e-09 -4.0867580287898663e-11 0.0000000000000000e+00  -2.7124344541792222e-09 -5.9066739307948583e-10 0.0000000000000000e+00  -2.6020294156936802e-09 -1.1235148523258260e-09 0.0000000000000000e+00  -2.4281588052371742e-09 -1.6252079025076369e-09 0.0000000000000000e+00  -2.1951599103950353e-09 -2.0822640165691211e-09 0.0000000000000000e+00  -1.9089419239633835e-09 -2.4822701355228867e-09 0.0000000000000000e+00  -1.5772264588755556e-09 -2.8142745124288584e-09 0.0000000000000000e+00  -1.2108628791909482e-09 -3.0691760099762080e-09 0.0000000000000000e+00  -8.2990209003451711e-10 -3.2396811079629642e-09 0.0000000000000000e+00  -4.9228252011094853e-10 -3.3166106911011351e-09 0.0000000000000000e+00  -3.7820043703373032e-10 -3.1472841919362637e-09 0.0000000000000000e+00  -4.6167859057638103e-10 4.0144473840834245e-09 0.0000000000000000e+00  -5.8052300570387303e-10 3.8102911780309441e-09 0.0000000000000000e+00  -9.3845762126749261e-10 3.6873309119651785e-09 0.0000000000000000e+00  -1.3335070787403021e-09 3.4684953288551608e-09 0.0000000000000000e+00  -1.7050987826893825e-09 3.1560059813781760e-09 0.0000000000000000e+00  -2.0346244688310524e-09 2.7584075633079673e-09 0.0000000000000000e+00  -2.3124547187759850e-09 2.2872640760323602e-09 0.0000000000000000e+00  -2.5319920152281836e-09 1.7560314708441574e-09 0.0000000000000000e+00  -2.6884531338763890e-09 1.1794794561044117e-09 0.0000000000000000e+00  -2.7786179418445888e-09 5.7323236566740787e-10 0.0000000000000000e+00  -2.8007688497898247e-09 -4.6607085170725075e-11 0.0000000000000000e+00  -2.7546717261780860e-09 -6.6377367800804282e-10 0.0000000000000000e+00  -2.6415753651071805e-09 -1.2621252255373539e-09 0.0000000000000000e+00  -2.4642276882426988e-09 -1.8259313007676537e-09 0.0000000000000000e+00  -2.2269113386160179e-09 -2.3401950988129846e-09 0.0000000000000000e+00  -1.9355326263914289e-09 -2.7910273800275521e-09 0.0000000000000000e+00  -1.5979613209035273e-09 -3.1660714456620627e-09 0.0000000000000000e+00  -1.2255466654868778e-09 -3.4549312956932450e-09 0.0000000000000000e+00  -8.3984531853933778e-10 -3.6491793799411132e-09 0.0000000000000000e+00  -5.0385271003213333e-10 -3.7386849975824878e-09 0.0000000000000000e+00  -4.1562491298345711e-10 -3.5687095979486893e-09 0.0000000000000000e+00  -5.1181230234668516e-10 4.4679714125969473e-09 0.0000000000000000e+00  -6.0121262032638688e-10 4.2565034006659650e-09 0.0000000000000000e+00  -9.5740923104285347e-10 4.1147171273612743e-09 0.0000000000000000e+00  -1.3558797137371011e-09 3.8661564145674942e-09 0.0000000000000000e+00  -1.7310276353472881e-09 3.5139663837838951e-09 0.0000000000000000e+00  -2.0630494510717465e-09 3.0681181261946947e-09 0.0000000000000000e+00  -2.3421186426931623e-09 2.5416990855876394e-09 0.0000000000000000e+00  -2.5617820954042168e-09 1.9497047329783711e-09 0.0000000000000000e+00  -2.7175395298810827e-09 1.3084232895846431e-09 0.0000000000000000e+00  -2.8064754391487306e-09 6.3495924724354119e-10 0.0000000000000000e+00  -2.8271128810782975e-09 -5.3141264432201143e-11 0.0000000000000000e+00  -2.7793416525345299e-09 -7.3818757205776898e-10 0.0000000000000000e+00  -2.6644038634328668e-09 -1.4026018711451695e-09 0.0000000000000000e+00  -2.4849357180067560e-09 -2.0291826582398846e-09 0.0000000000000000e+00  -2.2450629147367985e-09 -2.6014166723055444e-09 0.0000000000000000e+00  -1.9505759332843152e-09 -3.1038674209790229e-09 0.0000000000000000e+00  -1.6093873899279173e-09 -3.5226430410296463e-09 0.0000000000000000e+00  -1.2332756783627768e-09 -3.8458962970684729e-09 0.0000000000000000e+00  -8.4535599107597295e-10 -4.0639400270438818e-09 0.0000000000000000e+00  -5.1422045156813897e-10 -4.1656816576691382e-09 0.0000000000000000e+00  -4.5834238749974841e-10 -3.9946780773600471e-09 0.0000000000000000e+00  -5.6812045082611276e-10 4.9234263321813996e-09 0.0000000000000000e+00  -6.1937484399152009e-10 4.7069332079874866e-09 0.0000000000000000e+00  -9.6850232436888397e-10 4.5458531778093433e-09 0.0000000000000000e+00  -1.3655900782446075e-09 4.2667130709756143e-09 0.0000000000000000e+00  -1.7396006839440141e-09 3.8737327035941052e-09 0.0000000000000000e+00  -2.0695966673644729e-09 3.3785221724595831e-09 0.0000000000000000e+00  -2.3457562318250404e-09 2.7958984442045292e-09 0.0000000000000000e+00  -2.5620038121291148e-09 2.1425400086518405e-09 0.0000000000000000e+00  -2.7143429012541060e-09 1.4363018035437677e-09 0.0000000000000000e+00  -2.8003409681794402e-09 6.9571876645618109e-10 0.0000000000000000e+00  -2.8188730250424480e-09 -6.0345156472236118e-11 0.0000000000000000e+00  -2.7699810540999793e-09 -8.1293738900839185e-10 0.0000000000000000e+00  -2.6548421147898646e-09 -1.5432014795362656e-09 0.0000000000000000e+00  -2.4758460859240390e-09 -2.2325731874103124e-09 0.0000000000000000e+00  -2.2367735832284422e-09 -2.8630515789841390e-09 0.0000000000000000e+00  -1.9430885430844575e-09 -3.4175899601993321e-09 0.0000000000000000e+00  -1.6025486450585533e-09 -3.8806185689157885e-09 0.0000000000000000e+00  -1.2272223543573628e-09 -4.2386538591811940e-09 0.0000000000000000e+00  -8.4180713066814847e-10 -4.4805844833265159e-09 0.0000000000000000e+00  -5.2102763550677295e-10 -4.5943179439260418e-09 0.0000000000000000e+00  -5.0647433359893046e-10 -4.4228253212875053e-09 0.0000000000000000e+00  -6.3090631655263111e-10 5.3741745838066492e-09 0.0000000000000000e+00  -6.3232201655298799e-10 5.1559905899626276e-09 0.0000000000000000e+00  -9.6630284806872946e-10 4.9749949222202979e-09 0.0000000000000000e+00  -1.3544860054577682e-09 4.6643458449034241e-09 0.0000000000000000e+00  -1.7200042855374449e-09 4.2295923636325093e-09 0.0000000000000000e+00  -2.0409070243118974e-09 3.6842615890112943e-09 0.0000000000000000e+00  -2.3076823240428995e-09 3.0451405323659605e-09 0.0000000000000000e+00  -2.5149924287935274e-09 2.3307361205974616e-09 0.0000000000000000e+00  -2.6596916597223145e-09 1.5604847864077002e-09 0.0000000000000000e+00  -2.7401117648867109e-09 7.5423464861941956e-10 0.0000000000000000e+00  -2.7556546521172948e-09 -6.8052353643195541e-11 0.0000000000000000e+00  -2.7065584885829750e-09 -8.8643298529305093e-10 0.0000000000000000e+00  -2.5938435048833560e-09 -1.6810337265041616e-09 0.0000000000000000e+00  -2.4194417375268114e-09 -2.4321208458180084e-09 0.0000000000000000e+00  -2.1864923509294498e-09 -3.1202863954315442e-09 0.0000000000000000e+00  -1.8998002889881541e-09 -3.7268221440498628e-09 0.0000000000000000e+00  -1.5666565366325934e-09 -4.2343095140366093e-09 0.0000000000000000e+00  -1.1991948728186114e-09 -4.6273838816495248e-09 0.0000000000000000e+00  -8.2367591427313705e-10 -4.8932718082329677e-09 0.0000000000000000e+00  -5.2147630046122361e-10 -5.0187970523334839e-09 0.0000000000000000e+00  -5.6016901222111113e-10 -4.8483728771999000e-09 0.0000000000000000e+00  -7.0052468061106018e-10 5.8102680739845583e-09 0.0000000000000000e+00  -6.3680966269667304e-10 5.5950572458674775e-09 0.0000000000000000e+00  -9.4422472942947849e-10 5.3934057545878507e-09 0.0000000000000000e+00  -1.3126399477205718e-09 5.0502801897800741e-09 0.0000000000000000e+00  -1.6590133307981404e-09 4.5729624973351800e-09 0.0000000000000000e+00  -1.9605881