<?xml version="1.0"?>
<VTKFile type="UnstructuredGrid"  version="0.1"  >
<UnstructuredGrid>
<Piece  NumberOfPoints="651" NumberOfCells="1200">
<Points>
<DataArray  type="Float64"  NumberOfComponents="3"  format="ascii">0 0 0  50000 0 0  100000 0 0  150000 0 0  200000 0 0  250000 0 0  300000 0 0  350000 0 0  400000 0 0  450000 0 0  500000 0 0  550000 0 0  600000 0 0  650000 0 0  700000 0 0  750000 0 0  800000 0 0  850000 0 0  900000 0 0  950000 0 0  1000000 0 0  0 50000 0  50000 50000 0  100000 50000 0  150000 50000 0  200000 50000 0  250000 50000 0  300000 50000 0  350000 50000 0  400000 50000 0  450000 50000 0  500000 50000 0  550000 50000 0  600000 50000 0  650000 50000 0  700000 50000 0  750000 50000 0  800000 50000 0  850000 50000 0  900000 50000 0  950000 50000 0  1000000 50000 0  0 100000 0  50000 100000 0  100000 100000 0  150000 100000 0  200000 100000 0  250000 100000 0  300000 100000 0  350000 100000 0  400000 100000 0  450000 100000 0  500000 100000 0  550000 100000 0  600000 100000 0  650000 100000 0  700000 100000 0  750000 100000 0  800000 100000 0  850000 100000 0  900000 100000 0  950000 100000 0  1000000 100000 0  0 150000 0  50000 150000 0  100000 150000 0  150000 150000 0  200000 150000 0  250000 150000 0  300000 150000 0  350000 150000 0  400000 150000 0  450000 150000 0  500000 150000 0  550000 150000 0  600000 150000 0  650000 150000 0  700000 150000 0  750000 150000 0  800000 150000 0  850000 150000 0  900000 150000 0  950000 150000 0  1000000 150000 0  0 200000 0  50000 200000 0  100000 200000 0  150000 200000 0  200000 200000 0  250000 200000 0  300000 200000 0  350000 200000 0  400000 200000 0  450000 200000 0  500000 200000 0  550000 200000 0  600000 200000 0  650000 200000 0  700000 200000 0  750000 200000 0  800000 200000 0  850000 200000 0  900000 200000 0  950000 200000 0  1000000 200000 0  0 250000 0  50000 250000 0  100000 250000 0  150000 250000 0  200000 250000 0  250000 250000 0  300000 250000 0  350000 250000 0  400000 250000 0  450000 250000 0  500000 250000 0  550000 250000 0  600000 250000 0  650000 250000 0  700000 250000 0  750000 250000 0  800000 250000 0  850000 250000 0  900000 250000 0  950000 250000 0  1000000 250000 0  0 300000 0  50000 300000 0  100000 300000 0  150000 300000 0  200000 300000 0  250000 300000 0  300000 300000 0  350000 300000 0  400000 300000 0  450000 300000 0  500000 300000 0  550000 300000 0  600000 300000 0  650000 300000 0  700000 300000 0  750000 300000 0  800000 300000 0  850000 300000 0  900000 300000 0  950000 300000 0  1000000 300000 0  0 350000 0  50000 350000 0  100000 350000 0  150000 350000 0  200000 350000 0  250000 350000 0  300000 350000 0  350000 350000 0  400000 350000 0  450000 350000 0  500000 350000 0  550000 350000 0  600000 350000 0  650000 350000 0  700000 350000 0  750000 350000 0  800000 350000 0  850000 350000 0  900000 350000 0  950000 350000 0  1000000 350000 0  0 400000 0  50000 400000 0  100000 400000 0  150000 400000 0  200000 400000 0  250000 400000 0  300000 400000 0  350000 400000 0  400000 400000 0  450000 400000 0  500000 400000 0  550000 400000 0  600000 400000 0  650000 400000 0  700000 400000 0  750000 400000 0  800000 400000 0  850000 400000 0  900000 400000 0  950000 400000 0  1000000 400000 0  0 450000 0  50000 450000 0  100000 450000 0  150000 450000 0  200000 450000 0  250000 450000 0  300000 450000 0  350000 450000 0  400000 450000 0  450000 450000 0  500000 450000 0  550000 450000 0  600000 450000 0  650000 450000 0  700000 450000 0  750000 450000 0  800000 450000 0  850000 450000 0  900000 450000 0  950000 450000 0  1000000 450000 0  0 500000 0  50000 500000 0  100000 500000 0  150000 500000 0  200000 500000 0  250000 500000 0  300000 500000 0  350000 500000 0  400000 500000 0  450000 500000 0  500000 500000 0  550000 500000 0  600000 500000 0  650000 500000 0  700000 500000 0  750000 500000 0  800000 500000 0  850000 500000 0  900000 500000 0  950000 500000 0  1000000 500000 0  0 550000 0  50000 550000 0  100000 550000 0  150000 550000 0  200000 550000 0  250000 550000 0  300000 550000 0  350000 550000 0  400000 550000 0  450000 550000 0  500000 550000 0  550000 550000 0  600000 550000 0  650000 550000 0  700000 550000 0  750000 550000 0  800000 550000 0  850000 550000 0  900000 550000 0  950000 550000 0  1000000 550000 0  0 600000 0  50000 600000 0  100000 600000 0  150000 600000 0  200000 600000 0  250000 600000 0  300000 600000 0  350000 600000 0  400000 600000 0  450000 600000 0  500000 600000 0  550000 600000 0  600000 600000 0  650000 600000 0  700000 600000 0  750000 600000 0  800000 600000 0  850000 600000 0  900000 600000 0  950000 600000 0  1000000 600000 0  0 650000 0  50000 650000 0  100000 650000 0  150000 650000 0  200000 650000 0  250000 650000 0  300000 650000 0  350000 650000 0  400000 650000 0  450000 650000 0  500000 650000 0  550000 650000 0  600000 650000 0  650000 650000 0  700000 650000 0  750000 650000 0  800000 650000 0  850000 650000 0  900000 650000 0  950000 650000 0  1000000 650000 0  0 700000 0  50000 700000 0  100000 700000 0  150000 700000 0  200000 700000 0  250000 700000 0  300000 700000 0  350000 700000 0  400000 700000 0  450000 700000 0  500000 700000 0  550000 700000 0  600000 700000 0  650000 700000 0  700000 700000 0  750000 700000 0  800000 700000 0  850000 700000 0  900000 700000 0  950000 700000 0  1000000 700000 0  0 750000 0  50000 750000 0  100000 750000 0  150000 750000 0  200000 750000 0  250000 750000 0  300000 750000 0  350000 750000 0  400000 750000 0  450000 750000 0  500000 750000 0  550000 750000 0  600000 750000 0  650000 750000 0  700000 750000 0  750000 750000 0  800000 750000 0  850000 750000 0  900000 750000 0  950000 750000 0  1000000 750000 0  0 800000 0  50000 800000 0  100000 800000 0  150000 800000 0  200000 800000 0  250000 800000 0  300000 800000 0  350000 800000 0  400000 800000 0  450000 800000 0  500000 800000 0  550000 800000 0  600000 800000 0  650000 800000 0  700000 800000 0  750000 800000 0  800000 800000 0  850000 800000 0  900000 800000 0  950000 800000 0  1000000 800000 0  0 850000 0  50000 850000 0  100000 850000 0  150000 850000 0  200000 850000 0  250000 850000 0  300000 850000 0  350000 850000 0  400000 850000 0  450000 850000 0  500000 850000 0  550000 850000 0  600000 850000 0  650000 850000 0  700000 850000 0  750000 850000 0  800000 850000 0  850000 850000 0  900000 850000 0  950000 850000 0  1000000 850000 0  0 900000 0  50000 900000 0  100000 900000 0  150000 900000 0  200000 900000 0  250000 900000 0  300000 900000 0  350000 900000 0  400000 900000 0  450000 900000 0  500000 900000 0  550000 900000 0  600000 900000 0  650000 900000 0  700000 900000 0  750000 900000 0  800000 900000 0  850000 900000 0  900000 900000 0  950000 900000 0  1000000 900000 0  0 950000 0  50000 950000 0  100000 950000 0  150000 950000 0  200000 950000 0  250000 950000 0  300000 950000 0  350000 950000 0  400000 950000 0  450000 950000 0  500000 950000 0  550000 950000 0  600000 950000 0  650000 950000 0  700000 950000 0  750000 950000 0  800000 950000 0  850000 950000 0  900000 950000 0  950000 950000 0  1000000 950000 0  0 1000000 0  50000 1000000 0  100000 1000000 0  150000 1000000 0  200000 1000000 0  250000 1000000 0  300000 1000000 0  350000 1000000 0  400000 1000000 0  450000 1000000 0  500000 1000000 0  550000 1000000 0  600000 1000000 0  650000 1000000 0  700000 1000000 0  750000 1000000 0  800000 1000000 0  850000 1000000 0  900000 1000000 0  950000 1000000 0  1000000 1000000 0  0 1050000 0  50000 1050000 0  100000 1050000 0  150000 1050000 0  200000 1050000 0  250000 1050000 0  300000 1050000 0  350000 1050000 0  400000 1050000 0  450000 1050000 0  500000 1050000 0  550000 1050000 0  600000 1050000 0  650000 1050000 0  700000 1050000 0  750000 1050000 0  800000 1050000 0  850000 1050000 0  900000 1050000 0  950000 1050000 0  1000000 1050000 0  0 1100000 0  50000 1100000 0  100000 1100000 0  150000 1100000 0  200000 1100000 0  250000 1100000 0  300000 1100000 0  350000 1100000 0  400000 1100000 0  450000 1100000 0  500000 1100000 0  550000 1100000 0  600000 1100000 0  650000 1100000 0  700000 1100000 0  750000 1100000 0  800000 1100000 0  850000 1100000 0  900000 1100000 0  950000 1100000 0  1000000 1100000 0  0 1150000 0  50000 1150000 0  100000 1150000 0  150000 1150000 0  200000 1150000 0  250000 1150000 0  300000 1150000 0  350000 1150000 0  400000 1150000 0  450000 1150000 0  500000 1150000 0  550000 1150000 0  600000 1150000 0  650000 1150000 0  700000 1150000 0  750000 1150000 0  800000 1150000 0  850000 1150000 0  900000 1150000 0  950000 1150000 0  1000000 1150000 0  0 1200000 0  50000 1200000 0  100000 1200000 0  150000 1200000 0  200000 1200000 0  250000 1200000 0  300000 1200000 0  350000 1200000 0  400000 1200000 0  450000 1200000 0  500000 1200000 0  550000 1200000 0  600000 1200000 0  650000 1200000 0  700000 1200000 0  750000 1200000 0  800000 1200000 0  850000 1200000 0  900000 1200000 0  950000 1200000 0  1000000 1200000 0  0 1250000 0  50000 1250000 0  100000 1250000 0  150000 1250000 0  200000 1250000 0  250000 1250000 0  300000 1250000 0  350000 1250000 0  400000 1250000 0  450000 1250000 0  500000 1250000 0  550000 1250000 0  600000 1250000 0  650000 1250000 0  700000 1250000 0  750000 1250000 0  800000 1250000 0  850000 1250000 0  900000 1250000 0  950000 1250000 0  1000000 1250000 0  0 1300000 0  50000 1300000 0  100000 1300000 0  150000 1300000 0  200000 1300000 0  250000 1300000 0  300000 1300000 0  350000 1300000 0  400000 1300000 0  450000 1300000 0  500000 1300000 0  550000 1300000 0  600000 1300000 0  650000 1300000 0  700000 1300000 0  750000 1300000 0  800000 1300000 0  850000 1300000 0  900000 1300000 0  950000 1300000 0  1000000 1300000 0  0 1350000 0  50000 1350000 0  100000 1350000 0  150000 1350000 0  200000 1350000 0  250000 1350000 0  300000 1350000 0  350000 1350000 0  400000 1350000 0  450000 1350000 0  500000 1350000 0  550000 1350000 0  600000 1350000 0  650000 1350000 0  700000 135
[...]
<PointData  Vectors="f_15"> 
<DataArray  type="Float64"  Name="f_15"  NumberOfComponents="3" format="ascii">-3.2692388110263807e-10 2.8367112414104863e-10 0.0000000000000000e+00  -6.0100366574141592e-10 2.3190516152147903e-10 0.0000000000000000e+00  -1.0874180078747265e-09 2.1146209366386688e-10 0.0000000000000000e+00  -1.5571486976850109e-09 1.9347706953597881e-10 0.0000000000000000e+00  -1.9871703882237224e-09 1.7203212580970733e-10 0.0000000000000000e+00  -2.3649836035456457e-09 1.4660680489621609e-10 0.0000000000000000e+00  -2.6804253196121402e-09 1.1752258908222787e-10 0.0000000000000000e+00  -2.9252727274621476e-09 8.5382880762991438e-11 0.0000000000000000e+00  -3.0932380129396799e-09 5.0949778100548925e-11 0.0000000000000000e+00  -3.1800815715734520e-09 1.5078648192711165e-11 0.0000000000000000e+00  -3.1837041825430188e-09 -2.1324954102364445e-11 0.0000000000000000e+00  -3.1041914575777539e-09 -5.7338812455188798e-11 0.0000000000000000e+00  -2.9438058346850102e-09 -9.2053950012589392e-11 0.0000000000000000e+00  -2.7069262904340052e-09 -1.2460400679664295e-10 0.0000000000000000e+00  -2.3999466146265371e-09 -1.5419822124464776e-10 0.0000000000000000e+00  -2.0311985027224724e-09 -1.8017200404325964e-10 0.0000000000000000e+00  -1.6112469570660244e-09 -2.0210717601508693e-10 0.0000000000000000e+00  -1.1551494620174685e-09 -2.2016727873993637e-10 0.0000000000000000e+00  -6.9312823536770139e-10 -2.3477217217068478e-10 0.0000000000000000e+00  -3.1589725773801564e-10 -2.2794041060288271e-10 0.0000000000000000e+00  -1.5710494531613443e-10 -1.4525431827014976e-10 0.0000000000000000e+00  -2.7752518719990662e-10 5.3588211769532566e-10 0.0000000000000000e+00  -4.9626514313982059e-10 4.8623207653828848e-10 0.0000000000000000e+00  -8.7875685484355163e-10 5.0081726918532209e-10 0.0000000000000000e+00  -1.3055307100415741e-09 4.7614903677285888e-10 0.0000000000000000e+00  -1.7121605881302184e-09 4.3310985349339328e-10 0.0000000000000000e+00  -2.0776889144531500e-09 3.7672403715226523e-10 0.0000000000000000e+00  -2.3904944227325534e-09 3.0970760174973429e-10 0.0000000000000000e+00  -2.6416929042956547e-09 2.3429360216470962e-10 0.0000000000000000e+00  -2.8244515328132893e-09 1.5266764632314157e-10 0.0000000000000000e+00  -2.9339471835861241e-09 6.7073826222466729e-11 0.0000000000000000e+00  -2.9673930660861174e-09 -2.0185885704242235e-11 0.0000000000000000e+00  -2.9240669717720878e-09 -1.0678594998752470e-10 0.0000000000000000e+00  -2.8053158483228242e-09 -1.9042126150972606e-10 0.0000000000000000e+00  -2.6145297586667001e-09 -2.6885095154240000e-10 0.0000000000000000e+00  -2.3570953499006769e-09 -3.3993343060762466e-10 0.0000000000000000e+00  -2.0403758599993847e-09 -4.0163667300662030e-10 0.0000000000000000e+00  -1.6739002093332770e-09 -4.5196870148412869e-10 0.0000000000000000e+00  -1.2705299149986683e-09 -4.8852061728073540e-10 0.0000000000000000e+00  -8.5188337328545053e-10 -5.0568561023643616e-10 0.0000000000000000e+00  -4.7165097331203789e-10 -4.8210869140186172e-10 0.0000000000000000e+00  -2.4764947546252663e-10 -2.9224907445309880e-10 0.0000000000000000e+00  -2.7044554196644956e-10 9.8407577835726128e-10 0.0000000000000000e+00  -5.0659172666225815e-10 8.6673150985638694e-10 0.0000000000000000e+00  -8.7098949994485544e-10 8.7626334311334158e-10 0.0000000000000000e+00  -1.2621194417312096e-09 8.3777765266513608e-10 0.0000000000000000e+00  -1.6371010286803552e-09 7.6623186423472598e-10 0.0000000000000000e+00  -1.9766832620857370e-09 6.6966881928534701e-10 0.0000000000000000e+00  -2.2683447513650431e-09 5.5339127089004981e-10 0.0000000000000000e+00  -2.5030760241500028e-09 4.2170488989985487e-10 0.0000000000000000e+00  -2.6741592742348058e-09 2.7866933373235539e-10 0.0000000000000000e+00  -2.7769036280018038e-09 1.2835504036469650e-10 0.0000000000000000e+00  -2.8086115238803423e-09 -2.5107590540188208e-11 0.0000000000000000e+00  -2.7685797855056114e-09 -1.7755955488713714e-10 0.0000000000000000e+00  -2.6580936700811136e-09 -3.2487151634257159e-10 0.0000000000000000e+00  -2.4804044248324558e-09 -4.6300252074824697e-10 0.0000000000000000e+00  -2.2406981583168264e-09 -5.8803526222038587e-10 0.0000000000000000e+00  -1.9460962552783178e-09 -6.9614525173651428e-10 0.0000000000000000e+00  -1.6058323022045089e-09 -7.8339589975917437e-10 0.0000000000000000e+00  -1.2321447911206913e-09 -8.4506017842128460e-10 0.0000000000000000e+00  -8.4392072522687159e-10 -8.7366515212862497e-10 0.0000000000000000e+00  -4.8458964771379673e-10 -8.5539957488704087e-10 0.0000000000000000e+00  -2.6263538049934860e-10 -6.3692433370628341e-10 0.0000000000000000e+00  -2.7812274552257605e-10 1.4256781076014372e-09 0.0000000000000000e+00  -5.0563325795878521e-10 1.2824046080778594e-09 0.0000000000000000e+00  -8.6466901121621907e-10 1.2697619336468136e-09 0.0000000000000000e+00  -1.2422754888275128e-09 1.2109021007938308e-09 0.0000000000000000e+00  -1.5998964668911840e-09 1.1089995673824779e-09 0.0000000000000000e+00  -1.9224305679841156e-09 9.7149505781142643e-10 0.0000000000000000e+00  -2.1992446167184660e-09 8.0511794172296338e-10 0.0000000000000000e+00  -2.4219281858154890e-09 6.1599603367342942e-10 0.0000000000000000e+00  -2.5840401885508581e-09 4.1007658072722986e-10 0.0000000000000000e+00  -2.6810644584743508e-09 1.9333107294335068e-10 0.0000000000000000e+00  -2.7104068576721372e-09 -2.8198847786500781e-11 0.0000000000000000e+00  -2.6713986980310265e-09 -2.4844042683700472e-10 0.0000000000000000e+00  -2.5652869795558716e-09 -4.6136427938679254e-10 0.0000000000000000e+00  -2.3952045120825407e-09 -6.6106292329111288e-10 0.0000000000000000e+00  -2.1661208009329487e-09 -8.4180641390659303e-10 0.0000000000000000e+00  -1.8847899317476051e-09 -9.9804058351545132e-10 0.0000000000000000e+00  -1.5597751221282380e-09 -1.1242801069046594e-09 0.0000000000000000e+00  -1.2019421759624819e-09 -1.2148719608749863e-09 0.0000000000000000e+00  -8.2740978996776460e-10 -1.2636567094661223e-09 0.0000000000000000e+00  -4.7654957509071384e-10 -1.2630453654309984e-09 0.0000000000000000e+00  -2.6577539623988728e-10 -1.0562910148868286e-09 0.0000000000000000e+00  -2.9383645575289547e-10 1.8581747561058747e-09 0.0000000000000000e+00  -5.0678140540372994e-10 1.7000258112275771e-09 0.0000000000000000e+00  -8.6248923411482688e-10 1.6643097280470771e-09 0.0000000000000000e+00  -1.2358985605240866e-09 1.5802171117349411e-09 0.0000000000000000e+00  -1.5866759376812358e-09 1.4460491791369761e-09 0.0000000000000000e+00  -1.9010206081009572e-09 1.2675344452612252e-09 0.0000000000000000e+00  -2.1697334050927876e-09 1.0518665713293093e-09 0.0000000000000000e+00  -2.3853126042396976e-09 8.0650958023777310e-10 0.0000000000000000e+00  -2.5418063857757881e-09 5.3907793837466039e-10 0.0000000000000000e+00  -2.6349616904132715e-09 2.5734208351214345e-10 0.0000000000000000e+00  -2.6623225850247892e-09 -3.0804067596676720e-11 0.0000000000000000e+00  -2.6232698781034548e-09 -3.1742217526187359e-10 0.0000000000000000e+00  -2.5190194650693052e-09 -5.9463558127585566e-10 0.0000000000000000e+00  -2.3525848485705128e-09 -8.5474293714062951e-10 0.0000000000000000e+00  -2.1287026553077371e-09 -1.0903236752114788e-09 0.0000000000000000e+00  -1.8537267820762447e-09 -1.2943268997724780e-09 0.0000000000000000e+00  -1.5355668154485853e-09 -1.4601613046840383e-09 0.0000000000000000e+00  -1.1841506137270977e-09 -1.5818803263611873e-09 0.0000000000000000e+00  -8.1490385788209997e-10 -1.6544487638808654e-09 0.0000000000000000e+00  -4.7019071047405118e-10 -1.6723371665575614e-09 0.0000000000000000e+00  -2.7633864338142396e-10 -1.4797501367671341e-09 0.0000000000000000e+00  -3.1616514634998129e-10 2.2868751277068062e-09 0.0000000000000000e+00  -5.1320807127549835e-10 2.1171526772061936e-09 0.0000000000000000e+00  -8.6740695509297571e-10 2.0601058738406325e-09 0.0000000000000000e+00  -1.2414383178805283e-09 1.9486605961633704e-09 0.0000000000000000e+00  -1.5918057718483186e-09 1.7802825893533283e-09 0.0000000000000000e+00  -1.9043379450196053e-09 1.5598733048861990e-09 0.0000000000000000e+00  -2.1703804868202822e-09 1.2948773806745378e-09 0.0000000000000000e+00  -2.3830513443038887e-09 9.9377888220068841e-10 0.0000000000000000e+00  -2.5368533336204841e-09 6.6563789993327945e-10 0.0000000000000000e+00  -2.6278222218362476e-09 3.1988297868614615e-10 0.0000000000000000e+00  -2.6536657080706435e-09 -3.3836331420510601e-11 0.0000000000000000e+00  -2.6138324932438140e-09 -3.8579507219609107e-10 0.0000000000000000e+00  -2.5095230591891101e-09 -7.2634776881738088e-10 0.0000000000000000e+00  -2.3436519657438594e-09 -1.0460913931038319e-09 0.0000000000000000e+00  -2.1207639521782904e-09 -1.3360361921394936e-09 0.0000000000000000e+00  -1.8469175916312491e-09 -1.5877949511907408e-09 0.0000000000000000e+00  -1.5296501735416895e-09 -1.7938271987765072e-09 0.0000000000000000e+00  -1.1786411420823559e-09 -1.9478061343453378e-09 0.0000000000000000e+00  -8.0993704409524212e-10 -2.0448762895221157e-09 0.0000000000000000e+00  -4.6929719445831409e-10 -2.0795215425499605e-09 0.0000000000000000e+00  -2.9339606301529017e-10 -1.8969027125076210e-09 0.0000000000000000e+00  -3.4462089100045104e-10 2.7166008342892579e-09 0.0000000000000000e+00  -5.2498102042775244e-10 2.5364720495480896e-09 0.0000000000000000e+00  -8.7958576856324284e-10 2.4595310231401597e-09 0.0000000000000000e+00  -1.2573398534386629e-09 2.3201047241635332e-09 0.0000000000000000e+00  -1.6112198799999510e-09 2.1160672478409367e-09 0.0000000000000000e+00  -1.9260790354199935e-09 1.8525054814037612e-09 0.0000000000000000e+00  -2.1932275579531422e-09 1.5373749022681497e-09 0.0000000000000000e+00  -2.4060521834564732e-09 1.1801365154505242e-09 0.0000000000000000e+00  -2.5593598911760658e-09 7.9118262320399791e-10 0.0000000000000000e+00  -2.6494291001512365e-09 3.8149194700135519e-10 0.0000000000000000e+00  -2.6741275940720037e-09 -3.7621526586263048e-11 0.0000000000000000e+00  -2.6329836164164076e-09 -4.5472600681797748e-10 0.0000000000000000e+00  -2.5272030376805624e-09 -8.5848200899639580e-10 0.0000000000000000e+00  -2.3596388403623073e-09 -1.2378584662763618e-09 0.0000000000000000e+00  -2.1347186736965357e-09 -1.5823663069761607e-09 0.0000000000000000e+00  -1.8583574404768460e-09 -1.8823264220976653e-09 0.0000000000000000e+00  -1.5380067985614812e-09 -2.1291983971492849e-09 0.0000000000000000e+00  -1.1835584156621811e-09 -2.3159833601126262e-09 0.0000000000000000e+00  -8.1221644559255393e-10 -2.4373478114236833e-09 0.0000000000000000e+00  -4.7358569677108775e-10 -2.4870863645236629e-09 0.0000000000000000e+00  -3.1607161845765971e-10 -2.3101835736233885e-09 0.0000000000000000e+00  -3.7902852985909252e-10 3.1509711038425785e-09 0.0000000000000000e+00  -5.4121093112325796e-10 2.9609379993281284e-09 0.0000000000000000e+00  -8.9752956932965340e-10 2.8649882932341596e-09 0.0000000000000000e+00  -1.2809534325415900e-09 2.6973183224807199e-09 0.0000000000000000e+00  -1.6405950752641895e-09 2.4565350297453337e-09 0.0000000000000000e+00  -1.9601505274000487e-09 2.1484912782784372e-09 0.0000000000000000e+00  -2.2306332793173823e-09 1.7819994247326567e-09 0.0000000000000000e+00  -2.4454753912954666e-09 1.3676148871739309e-09 0.0000000000000000e+00  -2.5996532586423297e-09 9.1705890011282268e-10 0.0000000000000000e+00  -2.6896280013602412e-09 4.4280900923218421e-10 0.0000000000000000e+00  -2.7134106821143259e-09 -4.2222619210126827e-11 0.0000000000000000e+00  -2.6706130024302925e-09 -5.2496483049632008e-10 0.0000000000000000e+00  -2.5624626975591959e-09 -9.9244533305722925e-10 0.0000000000000000e+00  -2.3917848167891439e-09 -1.4320520420111766e-09 0.0000000000000000e+00  -2.1629557479899660e-09 -1.8318160170694207e-09 0.0000000000000000e+00  -1.8818654168944717e-09 -2.1807325998574910e-09 0.0000000000000000e+00  -1.5560637983225167e-09 -2.4691323634928970e-09 0.0000000000000000e+00  -1.1958796061876996e-09 -2.6890803477398366e-09 0.0000000000000000e+00  -8.1987932896248347e-10 -2.8344135885732396e-09 0.0000000000000000e+00  -4.8189403985270869e-10 -2.8980348852444785e-09 0.0000000000000000e+00  -3.4403286934068997e-10 -2.7236441007313774e-09 0.0000000000000000e+00  -4.1937688696063227e-10 3.5920759001280684e-09 0.0000000000000000e+00  -5.6059515475425119e-10 3.3926121457552360e-09 0.0000000000000000e+00  -9.1883001267138709e-10 3.2780642652628863e-09 0.0000000000000000e+00  -1.3086371079498991e-09 3.0818331435944114e-09 0.0000000000000000e+00  -1.6748405819479761e-09 2.8033296604436122e-09 0.0000000000000000e+00  -1.9999230460367419e-09 2.4494777025584322e-09 0.0000000000000000e+00  -2.2745313200500383e-09 2.0302275056223478e-09 0.0000000000000000e+00  -2.4920592264482923e-09 1.5573916709606075e-09 0.0000000000000000e+00  -2.6475925222805816e-09 1.0440790825296463e-09 0.0000000000000000e+00  -2.7377472296864169e-09 5.0425756091863987e-10 0.0000000000000000e+00  -2.7606713609445902e-09 -4.7606955829488980e-11 0.0000000000000000e+00  -2.7160622975209001e-09 -5.9686126291007958e-10 0.0000000000000000e+00  -2.6051744435056034e-09 -1.1289521696489920e-09 0.0000000000000000e+00  -2.4308153458269804e-09 -1.6297161413230140e-09 0.0000000000000000e+00  -2.1973357644733265e-09 -2.0856940726174280e-09 0.0000000000000000e+00  -1.9106509395447110e-09 -2.4844872479827306e-09 0.0000000000000000e+00  -1.5784826337990082e-09 -2.8151570049646134e-09 0.0000000000000000e+00  -1.2116754296925699e-09 -3.0686320155782133e-09 0.0000000000000000e+00  -8.3025768137532259e-10 -3.2377315421875101e-09 0.0000000000000000e+00  -4.9273680625088561e-10 -3.3144186524241816e-09 0.0000000000000000e+00  -3.7717279753684340e-10 -3.1403769308019578e-09 0.0000000000000000e+00  -4.6575141270632884e-10 4.0402653991226975e-09 0.0000000000000000e+00  -5.8153957770816855e-10 3.8321766135278491e-09 0.0000000000000000e+00  -9.4040649163216749e-10 3.6990888005058370e-09 0.0000000000000000e+00  -1.3358283574303546e-09 3.4738127294934623e-09 0.0000000000000000e+00  -1.7078615561216682e-09 3.1566034529204119e-09 0.0000000000000000e+00  -2.0377564801836889e-09 2.7556467387421230e-09 0.0000000000000000e+00  -2.3158324637809152e-09 2.2822462715459999e-09 0.0000000000000000e+00  -2.5354770010620812e-09 1.7496297344158678e-09 0.0000000000000000e+00  -2.6919142343490147e-09 1.1723705313425522e-09 0.0000000000000000e+00  -2.7819439814941355e-09 5.6593295555074291e-10 0.0000000000000000e+00  -2.8038734498439400e-09 -5.3704703584852042e-11 0.0000000000000000e+00  -2.7574928054362999e-09 -6.7037005292174073e-10 0.0000000000000000e+00  -2.6440714946468035e-09 -1.2679874442191423e-09 0.0000000000000000e+00  -2.4663729644979095e-09 -1.8308721371796042e-09 0.0000000000000000e+00  -2.2286899990146017e-09 -2.3440573056250269e-09 0.0000000000000000e+00  -1.9369344745236594e-09 -2.7936730064201094e-09 0.0000000000000000e+00  -1.5989790375644292e-09 -3.1673773937837500e-09 0.0000000000000000e+00  -1.2261758041836263e-09 -3.4548004750980224e-09 0.0000000000000000e+00  -8.4008208982008807e-10 -3.6476161621414012e-09 0.0000000000000000e+00  -5.0438256938883961e-10 -3.7368357824383745e-09 0.0000000000000000e+00  -4.1549420716979845e-10 -3.5619155808016027e-09 0.0000000000000000e+00  -5.1829774924316300e-10 4.4938995709455505e-09 0.0000000000000000e+00  -6.0215135992151844e-10 4.2785898859882616e-09 0.0000000000000000e+00  -9.5851690830614463e-10 4.1267730410551765e-09 0.0000000000000000e+00  -1.3569767699080608e-09 3.8718088257259682e-09 0.0000000000000000e+00  -1.7323247725619595e-09 3.5148838343887445e-09 0.0000000000000000e+00  -2.0645862855587163e-09 3.0656149011133095e-09 0.0000000000000000e+00  -2.3438712613078238e-09 2.5368466452058532e-09 0.0000000000000000e+00  -2.5636931333247949e-09 1.9433659685519725e-09 0.0000000000000000e+00  -2.7195367315583450e-09 1.3012799360929644e-09 0.0000000000000000e+00  -2.8084848581939243e-09 6.2754182899649671e-10 0.0000000000000000e+00  -2.8290669658694525e-09 -6.0423316218467419e-11 0.0000000000000000e+00  -2.7811828677715344e-09 -7.4501819886428880e-10 0.0000000000000000e+00  -2.6660850291445789e-09 -1.4087344139635591e-09 0.0000000000000000e+00  -2.4864183438675676e-09 -2.0344200142000653e-09 0.0000000000000000e+00  -2.2463147450379959e-09 -2.6055954426192630e-09 0.0000000000000000e+00  -1.9515689120288106e-09 -3.1068458392269968e-09 0.0000000000000000e+00  -1.6100973371937730e-09 -3.5242935615534661e-09 0.0000000000000000e+00  -1.2336855571409406e-09 -3.8461118322328547e-09 0.0000000000000000e+00  -8.4546650167290930e-10 -4.0627031220416744e-09 0.0000000000000000e+00  -5.1482283925012027e-10 -4.1641090381813420e-09 0.0000000000000000e+00  -4.5906598661363892e-10 -3.9879810125940031e-09 0.0000000000000000e+00  -5.7720050919759430e-10 4.9490168605828013e-09 0.0000000000000000e+00  -6.2017899952667207e-10 4.7287312539132989e-09 0.0000000000000000e+00  -9.6865787426170345e-10 4.5578291907410294e-09 0.0000000000000000e+00  -1.3653672005317079e-09 4.2724205876962503e-09 0.0000000000000000e+00  -1.7393581133932989e-09 3.8747947276890983e-09 0.0000000000000000e+00  -2.0694771410527026e-09 3.3762019653754568e-09 0.0000000000000000e+00  -2.3458236932452700e-09 2.7912237828373243e-09 0.0000000000000000e+00  -2.5622731365585279e-09 2.1363441158566083e-09 0.0000000000000000e+00  -2.7147965109231122e-09 1.4292508065040174e-09 0.0000000000000000e+00  -2.8009422482816927e-09 6.8833838445338878e-10 0.0000000000000000e+00  -2.8195764227175709e-09 -6.7643561028453791e-11 0.0000000000000000e+00  -2.7707385906729830e-09 -8.1983267086326291e-10 0.0000000000000000e+00  -2.6556067760862560e-09 -1.5494413339542179e-09 0.0000000000000000e+00  -2.4765729663989652e-09 -2.2379557947841290e-09 0.0000000000000000e+00  -2.2374198264645442e-09 -2.8674100981245410e-09 0.0000000000000000e+00  -1.9436132206090890e-09 -3.4207795729377450e-09 0.0000000000000000e+00  -1.6029138936869342e-09 -3.8825067923654231e-09 0.0000000000000000e+00  -1.2273986114803360e-09 -4.2391229684274378e-09 0.0000000000000000e+00  -8.4179453210861393e-10 -4.4795957238094538e-09 0.0000000000000000e+00  -5.2170123261734594e-10 -4.5929530248415400e-09 0.0000000000000000e+00  -5.0800102349990426e-10 -4.4162207288215737e-09 0.0000000000000000e+00  -6.4267242734273593e-10 5.3989041731557203e-09 0.0000000000000000e+00  -6.3292555579727499e-10 5.1769795830200102e-09 0.0000000000000000e+00  -9.6540099934326420e-10 4.9865254774437008e-09 0.0000000000000000e+00  -1.3528599721356390e-09 4.6698543479323716e-09 0.0000000000000000e+00  -1.7181679664258453e-09 4.2306456700537957e-09 0.0000000000000000e+00  -2.0390999420954341e-09 3.6820611399075379e-09 0.0000000000000000e+00  -2.3060454945976041e-09 3.0406565518210450e-09 0.0000000000000000e+00  -2.5136028960165709e-09 2.3247560713108553e-09 0.0000000000000000e+00  -2.6585795896982281e-09 1.5536427859886565e-09 0.0000000000000000e+00  -2.7392746161531644e-09 7.4703657179703288e-10 0.0000000000000000e+00  -2.7550688111461195e-09 -7.5205893660332240e-11 0.0000000000000000e+00  -2.7061878305331839e-09 -8.9322572283971599e-10 0.0000000000000000e+00  -2.5936449779049740e-09 -1.6872150482345422e-09 0.0000000000000000e+00  -2.4193685554038126e-09 -2.4374892562293601e-09 0.0000000000000000e+00  -2.1864956321253480e-09 -3.1246748344663058e-09 0.0000000000000000e+00  -1.8998301278972527e-09 -3.7300847806475569e-09 0.0000000000000000e+00  -1.5666637783237104e-09 -4.2363106648483755e-09 0.0000000000000000e+00  -1.1991373331380740e-09 -4.6279978295203417e-09 0.0000000000000000e+00  -8.2354904044030067e-10 -4.8924432302964518e-09 0.0000000000000000e+00  -5.2221977014868188e-10 -5.0175727402365665e-09 0.0000000000000000e+00  -5.6244272854888443e-10 -4.8418674133249974e-09 0.0000000000000000e+00  -7.1495425688315455e-10 5.8335526503180294e-09 0.0000000000000000e+00  -6.3714440562594868e-10 5.6146975814335561e-09 0.0000000000000000e+00  -9.4218314805668941e-10 5.4041445430901407e-09 0.0000000000000000e+00  -1.3095594700804277e-09 5.0553675733847426e-09 0.0000000000000000e+00  -1.6555663336663268e-09 4.5738834135030578e-09 0.0000000000000000e+00  -1.95710421