<?xml version="1.0"?>
<VTKFile type="UnstructuredGrid"  version="0.1"  >
<UnstructuredGrid>
<Piece  NumberOfPoints="651" NumberOfCells="1200">
<Points>
<DataArray  type="Float64"  NumberOfComponents="3"  format="ascii">0 0 0  50000 0 0  100000 0 0  150000 0 0  200000 0 0  250000 0 0  300000 0 0  350000 0 0  400000 0 0  450000 0 0  500000 0 0  550000 0 0  600000 0 0  650000 0 0  700000 0 0  750000 0 0  800000 0 0  850000 0 0  900000 0 0  950000 0 0  1000000 0 0  0 50000 0  50000 50000 0  100000 50000 0  150000 50000 0  200000 50000 0  250000 50000 0  300000 50000 0  350000 50000 0  400000 50000 0  450000 50000 0  500000 50000 0  550000 50000 0  600000 50000 0  650000 50000 0  700000 50000 0  750000 50000 0  800000 50000 0  850000 50000 0  900000 50000 0  950000 50000 0  1000000 50000 0  0 100000 0  50000 100000 0  100000 100000 0  150000 100000 0  200000 100000 0  250000 100000 0  300000 100000 0  350000 100000 0  400000 100000 0  450000 100000 0  500000 100000 0  550000 100000 0  600000 100000 0  650000 100000 0  700000 100000 0  750000 100000 0  800000 100000 0  850000 100000 0  900000 100000 0  950000 100000 0  1000000 100000 0  0 150000 0  50000 150000 0  100000 150000 0  150000 150000 0  200000 150000 0  250000 150000 0  300000 150000 0  350000 150000 0  400000 150000 0  450000 150000 0  500000 150000 0  550000 150000 0  600000 150000 0  650000 150000 0  700000 150000 0  750000 150000 0  800000 150000 0  850000 150000 0  900000 150000 0  950000 150000 0  1000000 150000 0  0 200000 0  50000 200000 0  100000 200000 0  150000 200000 0  200000 200000 0  250000 200000 0  300000 200000 0  350000 200000 0  400000 200000 0  450000 200000 0  500000 200000 0  550000 200000 0  600000 200000 0  650000 200000 0  700000 200000 0  750000 200000 0  800000 200000 0  850000 200000 0  900000 200000 0  950000 200000 0  1000000 200000 0  0 250000 0  50000 250000 0  100000 250000 0  150000 250000 0  200000 250000 0  250000 250000 0  300000 250000 0  350000 250000 0  400000 250000 0  450000 250000 0  500000 250000 0  550000 250000 0  600000 250000 0  650000 250000 0  700000 250000 0  750000 250000 0  800000 250000 0  850000 250000 0  900000 250000 0  950000 250000 0  1000000 250000 0  0 300000 0  50000 300000 0  100000 300000 0  150000 300000 0  200000 300000 0  250000 300000 0  300000 300000 0  350000 300000 0  400000 300000 0  450000 300000 0  500000 300000 0  550000 300000 0  600000 300000 0  650000 300000 0  700000 300000 0  750000 300000 0  800000 300000 0  850000 300000 0  900000 300000 0  950000 300000 0  1000000 300000 0  0 350000 0  50000 350000 0  100000 350000 0  150000 350000 0  200000 350000 0  250000 350000 0  300000 350000 0  350000 350000 0  400000 350000 0  450000 350000 0  500000 350000 0  550000 350000 0  600000 350000 0  650000 350000 0  700000 350000 0  750000 350000 0  800000 350000 0  850000 350000 0  900000 350000 0  950000 350000 0  1000000 350000 0  0 400000 0  50000 400000 0  100000 400000 0  150000 400000 0  200000 400000 0  250000 400000 0  300000 400000 0  350000 400000 0  400000 400000 0  450000 400000 0  500000 400000 0  550000 400000 0  600000 400000 0  650000 400000 0  700000 400000 0  750000 400000 0  800000 400000 0  850000 400000 0  900000 400000 0  950000 400000 0  1000000 400000 0  0 450000 0  50000 450000 0  100000 450000 0  150000 450000 0  200000 450000 0  250000 450000 0  300000 450000 0  350000 450000 0  400000 450000 0  450000 450000 0  500000 450000 0  550000 450000 0  600000 450000 0  650000 450000 0  700000 450000 0  750000 450000 0  800000 450000 0  850000 450000 0  900000 450000 0  950000 450000 0  1000000 450000 0  0 500000 0  50000 500000 0  100000 500000 0  150000 500000 0  200000 500000 0  250000 500000 0  300000 500000 0  350000 500000 0  400000 500000 0  450000 500000 0  500000 500000 0  550000 500000 0  600000 500000 0  650000 500000 0  700000 500000 0  750000 500000 0  800000 500000 0  850000 500000 0  900000 500000 0  950000 500000 0  1000000 500000 0  0 550000 0  50000 550000 0  100000 550000 0  150000 550000 0  200000 550000 0  250000 550000 0  300000 550000 0  350000 550000 0  400000 550000 0  450000 550000 0  500000 550000 0  550000 550000 0  600000 550000 0  650000 550000 0  700000 550000 0  750000 550000 0  800000 550000 0  850000 550000 0  900000 550000 0  950000 550000 0  1000000 550000 0  0 600000 0  50000 600000 0  100000 600000 0  150000 600000 0  200000 600000 0  250000 600000 0  300000 600000 0  350000 600000 0  400000 600000 0  450000 600000 0  500000 600000 0  550000 600000 0  600000 600000 0  650000 600000 0  700000 600000 0  750000 600000 0  800000 600000 0  850000 600000 0  900000 600000 0  950000 600000 0  1000000 600000 0  0 650000 0  50000 650000 0  100000 650000 0  150000 650000 0  200000 650000 0  250000 650000 0  300000 650000 0  350000 650000 0  400000 650000 0  450000 650000 0  500000 650000 0  550000 650000 0  600000 650000 0  650000 650000 0  700000 650000 0  750000 650000 0  800000 650000 0  850000 650000 0  900000 650000 0  950000 650000 0  1000000 650000 0  0 700000 0  50000 700000 0  100000 700000 0  150000 700000 0  200000 700000 0  250000 700000 0  300000 700000 0  350000 700000 0  400000 700000 0  450000 700000 0  500000 700000 0  550000 700000 0  600000 700000 0  650000 700000 0  700000 700000 0  750000 700000 0  800000 700000 0  850000 700000 0  900000 700000 0  950000 700000 0  1000000 700000 0  0 750000 0  50000 750000 0  100000 750000 0  150000 750000 0  200000 750000 0  250000 750000 0  300000 750000 0  350000 750000 0  400000 750000 0  450000 750000 0  500000 750000 0  550000 750000 0  600000 750000 0  650000 750000 0  700000 750000 0  750000 750000 0  800000 750000 0  850000 750000 0  900000 750000 0  950000 750000 0  1000000 750000 0  0 800000 0  50000 800000 0  100000 800000 0  150000 800000 0  200000 800000 0  250000 800000 0  300000 800000 0  350000 800000 0  400000 800000 0  450000 800000 0  500000 800000 0  550000 800000 0  600000 800000 0  650000 800000 0  700000 800000 0  750000 800000 0  800000 800000 0  850000 800000 0  900000 800000 0  950000 800000 0  1000000 800000 0  0 850000 0  50000 850000 0  100000 850000 0  150000 850000 0  200000 850000 0  250000 850000 0  300000 850000 0  350000 850000 0  400000 850000 0  450000 850000 0  500000 850000 0  550000 850000 0  600000 850000 0  650000 850000 0  700000 850000 0  750000 850000 0  800000 850000 0  850000 850000 0  900000 850000 0  950000 850000 0  1000000 850000 0  0 900000 0  50000 900000 0  100000 900000 0  150000 900000 0  200000 900000 0  250000 900000 0  300000 900000 0  350000 900000 0  400000 900000 0  450000 900000 0  500000 900000 0  550000 900000 0  600000 900000 0  650000 900000 0  700000 900000 0  750000 900000 0  800000 900000 0  850000 900000 0  900000 900000 0  950000 900000 0  1000000 900000 0  0 950000 0  50000 950000 0  100000 950000 0  150000 950000 0  200000 950000 0  250000 950000 0  300000 950000 0  350000 950000 0  400000 950000 0  450000 950000 0  500000 950000 0  550000 950000 0  600000 950000 0  650000 950000 0  700000 950000 0  750000 950000 0  800000 950000 0  850000 950000 0  900000 950000 0  950000 950000 0  1000000 950000 0  0 1000000 0  50000 1000000 0  100000 1000000 0  150000 1000000 0  200000 1000000 0  250000 1000000 0  300000 1000000 0  350000 1000000 0  400000 1000000 0  450000 1000000 0  500000 1000000 0  550000 1000000 0  600000 1000000 0  650000 1000000 0  700000 1000000 0  750000 1000000 0  800000 1000000 0  850000 1000000 0  900000 1000000 0  950000 1000000 0  1000000 1000000 0  0 1050000 0  50000 1050000 0  100000 1050000 0  150000 1050000 0  200000 1050000 0  250000 1050000 0  300000 1050000 0  350000 1050000 0  400000 1050000 0  450000 1050000 0  500000 1050000 0  550000 1050000 0  600000 1050000 0  650000 1050000 0  700000 1050000 0  750000 1050000 0  800000 1050000 0  850000 1050000 0  900000 1050000 0  950000 1050000 0  1000000 1050000 0  0 1100000 0  50000 1100000 0  100000 1100000 0  150000 1100000 0  200000 1100000 0  250000 1100000 0  300000 1100000 0  350000 1100000 0  400000 1100000 0  450000 1100000 0  500000 1100000 0  550000 1100000 0  600000 1100000 0  650000 1100000 0  700000 1100000 0  750000 1100000 0  800000 1100000 0  850000 1100000 0  900000 1100000 0  950000 1100000 0  1000000 1100000 0  0 1150000 0  50000 1150000 0  100000 1150000 0  150000 1150000 0  200000 1150000 0  250000 1150000 0  300000 1150000 0  350000 1150000 0  400000 1150000 0  450000 1150000 0  500000 1150000 0  550000 1150000 0  600000 1150000 0  650000 1150000 0  700000 1150000 0  750000 1150000 0  800000 1150000 0  850000 1150000 0  900000 1150000 0  950000 1150000 0  1000000 1150000 0  0 1200000 0  50000 1200000 0  100000 1200000 0  150000 1200000 0  200000 1200000 0  250000 1200000 0  300000 1200000 0  350000 1200000 0  400000 1200000 0  450000 1200000 0  500000 1200000 0  550000 1200000 0  600000 1200000 0  650000 1200000 0  700000 1200000 0  750000 1200000 0  800000 1200000 0  850000 1200000 0  900000 1200000 0  950000 1200000 0  1000000 1200000 0  0 1250000 0  50000 1250000 0  100000 1250000 0  150000 1250000 0  200000 1250000 0  250000 1250000 0  300000 1250000 0  350000 1250000 0  400000 1250000 0  450000 1250000 0  500000 1250000 0  550000 1250000 0  600000 1250000 0  650000 1250000 0  700000 1250000 0  750000 1250000 0  800000 1250000 0  850000 1250000 0  900000 1250000 0  950000 1250000 0  1000000 1250000 0  0 1300000 0  50000 1300000 0  100000 1300000 0  150000 1300000 0  200000 1300000 0  250000 1300000 0  300000 1300000 0  350000 1300000 0  400000 1300000 0  450000 1300000 0  500000 1300000 0  550000 1300000 0  600000 1300000 0  650000 1300000 0  700000 1300000 0  750000 1300000 0  800000 1300000 0  850000 1300000 0  900000 1300000 0  950000 1300000 0  1000000 1300000 0  0 1350000 0  50000 1350000 0  100000 1350000 0  150000 1350000 0  200000 1350000 0  250000 1350000 0  300000 1350000 0  350000 1350000 0  400000 1350000 0  450000 1350000 0  500000 1350000 0  550000 1350000 0  600000 1350000 0  650000 1350000 0  700000 135
[...]
<PointData  Vectors="f_15"> 
<DataArray  type="Float64"  Name="f_15"  NumberOfComponents="3" format="ascii">-2.2837072869082675e-10 2.0524820011857777e-10 0.0000000000000000e+00  -3.6727025478889856e-10 1.7767806129249524e-10 0.0000000000000000e+00  -6.1625271661563430e-10 1.6379564874611481e-10 0.0000000000000000e+00  -8.6065703933661040e-10 1.4992856547297922e-10 0.0000000000000000e+00  -1.0890892857086692e-09 1.3283457322166085e-10 0.0000000000000000e+00  -1.2935598027264311e-09 1.1259104615060607e-10 0.0000000000000000e+00  -1.4670674395187411e-09 8.9639062203376572e-11 0.0000000000000000e+00  -1.6036787239600559e-09 6.4510356722606737e-11 0.0000000000000000e+00  -1.6987009163237865e-09 3.7801771169961966e-11 0.0000000000000000e+00  -1.7488600895505498e-09 1.0157323779934590e-11 0.0000000000000000e+00  -1.7524297800473734e-09 -1.7750697381209764e-11 0.0000000000000000e+00  -1.7092988463788927e-09 -4.5241324686792190e-11 0.0000000000000000e+00  -1.6209759018370367e-09 -7.1644735679314088e-11 0.0000000000000000e+00  -1.4905308448432300e-09 -9.6321769237565564e-11 0.0000000000000000e+00  -1.3224794241705438e-09 -1.1868214695844764e-10 0.0000000000000000e+00  -1.1226371459458781e-09 -1.3819849139854217e-10 0.0000000000000000e+00  -8.9806667786586635e-10 -1.5440606520870923e-10 0.0000000000000000e+00  -6.5774347792777354e-10 -1.6684352497622952e-10 0.0000000000000000e+00  -4.1715043550309076e-10 -1.7452154647315058e-10 0.0000000000000000e+00  -2.1912052827395427e-10 -1.7197534658669486e-10 0.0000000000000000e+00  -1.3437508295846138e-10 -1.2605782255455245e-10 0.0000000000000000e+00  -2.0838283327684490e-10 3.3318841957701458e-10 0.0000000000000000e+00  -2.9593314593382971e-10 2.8542271160745751e-10 0.0000000000000000e+00  -5.1475115093147295e-10 2.8085203274440636e-10 0.0000000000000000e+00  -7.5980746037272184e-10 2.6908293542364237e-10 0.0000000000000000e+00  -9.9682889850212379e-10 2.4829782612059816e-10 0.0000000000000000e+00  -1.2140425431393481e-09 2.1892516542360765e-10 0.0000000000000000e+00  -1.4032641213271479e-09 1.8186438675942753e-10 0.0000000000000000e+00  -1.5575264879237998e-09 1.3834446099175851e-10 0.0000000000000000e+00  -1.6711504039665497e-09 8.9846469095470100e-11 0.0000000000000000e+00  -1.7399476565869499e-09 3.8045815144683035e-11 0.0000000000000000e+00  -1.7613812103426385e-09 -1.5251319175801685e-11 0.0000000000000000e+00  -1.7346636787822588e-09 -6.8177113493357968e-11 0.0000000000000000e+00  -1.6607880958308358e-09 -1.1887374830480666e-10 0.0000000000000000e+00  -1.5424898272515683e-09 -1.6556479857727856e-10 0.0000000000000000e+00  -1.3841434530657131e-09 -2.0662331159820682e-10 0.0000000000000000e+00  -1.1916127504715987e-09 -2.4063142663799806e-10 0.0000000000000000e+00  -9.7213655999931478e-10 -2.6641769233584756e-10 0.0000000000000000e+00  -7.3465980146520587e-10 -2.8301568367457783e-10 0.0000000000000000e+00  -4.9260046544121921e-10 -2.8927173340287445e-10 0.0000000000000000e+00  -2.7742151989766241e-10 -2.8100943082527116e-10 0.0000000000000000e+00  -1.8540104045844516e-10 -2.0371042623553796e-10 0.0000000000000000e+00  -2.1315106069383036e-10 5.6490421619890808e-10 0.0000000000000000e+00  -2.9653856552505714e-10 5.0374517637533041e-10 0.0000000000000000e+00  -5.1535501127903016e-10 5.0317510058661044e-10 0.0000000000000000e+00  -7.6151273853242504e-10 4.8752982785456815e-10 0.0000000000000000e+00  -1.0029661144017471e-09 4.5421176137263360e-10 0.0000000000000000e+00  -1.2261140730947804e-09 4.0412905423866592e-10 0.0000000000000000e+00  -1.4215457343861139e-09 3.3904318940692442e-10 0.0000000000000000e+00  -1.5815987321135390e-09 2.6129131842177400e-10 0.0000000000000000e+00  -1.7000675502449230e-09 1.7370310234520922e-10 0.0000000000000000e+00  -1.7723640747749872e-09 7.9495394588720107e-11 0.0000000000000000e+00  -1.7956890590982073e-09 -1.7852208782314721e-11 0.0000000000000000e+00  -1.7691406926629150e-09 -1.1473283775875135e-10 0.0000000000000000e+00  -1.6937499612878215e-09 -2.0755287106101791e-10 0.0000000000000000e+00  -1.5724412731002902e-09 -2.9287219526227829e-10 0.0000000000000000e+00  -1.4099217658926966e-09 -3.6753843873533171e-10 0.0000000000000000e+00  -1.2125162417879220e-09 -4.2880659945183133e-10 0.0000000000000000e+00  -9.8802523699071325e-10 -4.7442498059785446e-10 0.0000000000000000e+00  -7.4598696961214046e-10 -5.0262217107322550e-10 0.0000000000000000e+00  -5.0024252541048331e-10 -5.1163997038839787e-10 0.0000000000000000e+00  -2.8273344090170600e-10 -4.9531357881131410e-10 0.0000000000000000e+00  -1.9747970606511747e-10 -3.8371240059635912e-10 0.0000000000000000e+00  -2.2656771480826383e-10 8.0493539216895820e-10 0.0000000000000000e+00  -3.0692607932752052e-10 7.5232260096536863e-10 0.0000000000000000e+00  -5.3119544636939343e-10 7.5444079442466648e-10 0.0000000000000000e+00  -7.8471658616459590e-10 7.3437353194839460e-10 0.0000000000000000e+00  -1.0342993081228026e-09 6.8717220254430726e-10 0.0000000000000000e+00  -1.2656517607896447e-09 6.1400916161952866e-10 0.0000000000000000e+00  -1.4687803762205222e-09 5.1750989084515052e-10 0.0000000000000000e+00  -1.6354140342311426e-09 4.0125251545393063e-10 0.0000000000000000e+00  -1.7588516041534830e-09 2.6959744379881792e-10 0.0000000000000000e+00  -1.8341421733291637e-09 1.2751441913161026e-10 0.0000000000000000e+00  -1.8582663946242466e-09 -1.9613133757671288e-11 0.0000000000000000e+00  -1.8302540233101736e-09 -1.6619932005981731e-10 0.0000000000000000e+00  -1.7512225478529860e-09 -3.0667416189086804e-10 0.0000000000000000e+00  -1.6243344930393232e-09 -4.3570186915378716e-10 0.0000000000000000e+00  -1.4546762176375040e-09 -5.4839134594941692e-10 0.0000000000000000e+00  -1.2490739737153758e-09 -6.4048848568956164e-10 0.0000000000000000e+00  -1.0159241187701602e-09 -7.0853013539989480e-10 0.0000000000000000e+00  -7.6542763354457139e-10 -7.4989534474510038e-10 0.0000000000000000e+00  -5.1221629177091276e-10 -7.6237490493548349e-10 0.0000000000000000e+00  -2.8979964435161783e-10 -7.3945578135816581e-10 0.0000000000000000e+00  -2.0697671134516405e-10 -6.0809873882354317e-10 0.0000000000000000e+00  -2.4462991513366013e-10 1.0537995015541750e-09 0.0000000000000000e+00  -3.2277660548031893e-10 1.0125508380877760e-09 0.0000000000000000e+00  -5.5618107203074624e-10 1.0197459150709823e-09 0.0000000000000000e+00  -8.2136130602444568e-10 9.9568873449859967e-10 0.0000000000000000e+00  -1.0829702649407206e-09 9.3437171036391947e-10 0.0000000000000000e+00  -1.3258922793875994e-09 8.3722061156476480e-10 0.0000000000000000e+00  -1.5394396794207579e-09 7.0771046405521874e-10 0.0000000000000000e+00  -1.7147429721624741e-09 5.5072602076256858e-10 0.0000000000000000e+00  -1.8445965380669895e-09 3.7227646478091439e-10 0.0000000000000000e+00  -1.9236723737486000e-09 1.7923334860133128e-10 0.0000000000000000e+00  -1.9487242771444794e-09 -2.0949814490206688e-11 0.0000000000000000e+00  -1.9187161869604735e-09 -2.2053356436246308e-10 0.0000000000000000e+00  -1.8348641703834402e-09 -4.1179637023878753e-10 0.0000000000000000e+00  -1.7005904266869529e-09 -5.8733871899011540e-10 0.0000000000000000e+00  -1.5213914441985114e-09 -7.4037933686846443e-10 0.0000000000000000e+00  -1.3046350230807745e-09 -8.6503304824459318e-10 0.0000000000000000e+00  -1.0593655442872017e-09 -9.5655144877853549e-10 0.0000000000000000e+00  -7.9653413222969122e-10 -1.0114651161202334e-09 0.0000000000000000e+00  -5.3178861379456294e-10 -1.0272377610268486e-09 0.0000000000000000e+00  -3.0089166875285294e-10 -9.9743815153480287e-10 0.0000000000000000e+00  -2.1945385116139279e-10 -8.4699228033771056e-10 0.0000000000000000e+00  -2.6719931684755207e-10 1.3140133365929044e-09 0.0000000000000000e+00  -3.4310609714475917e-10 1.2854442321495259e-09 0.0000000000000000e+00  -5.8864216618244763e-10 1.2994607343359190e-09 0.0000000000000000e+00  -8.6930064414117969e-10 1.2718931197982733e-09 0.0000000000000000e+00  -1.1467626331451843e-09 1.1961944943113980e-09 0.0000000000000000e+00  -1.4047232610222885e-09 1.0740225889761741e-09 0.0000000000000000e+00  -1.6316594676417604e-09 9.0975986653518031e-10 0.0000000000000000e+00  -1.8180039804663924e-09 7.0968493888564364e-10 0.0000000000000000e+00  -1.9559845201159988e-09 4.8158006367453280e-10 0.0000000000000000e+00  -2.0398580754571350e-09 2.3436913307263982e-10 0.0000000000000000e+00  -2.0661307686977022e-09 -2.2258118983748479e-11 0.0000000000000000e+00  -2.0336955217815336e-09 -2.7823509407142212e-10 0.0000000000000000e+00  -1.9438772830961027e-09 -5.2351436024915587e-10 0.0000000000000000e+00  -1.8003848438960302e-09 -7.4846429127617890e-10 0.0000000000000000e+00  -1.6091709266324358e-09 -9.4425924839504811e-10 0.0000000000000000e+00  -1.3782148342882136e-09 -1.1032536473738591e-09 0.0000000000000000e+00  -1.1173127392768387e-09 -1.2193215516969972e-09 0.0000000000000000e+00  -8.3833099821906179e-10 -1.2880979637121191e-09 0.0000000000000000e+00  -5.5824780352225461e-10 -1.3067064764329099e-09 0.0000000000000000e+00  -3.1585221045915992e-10 -1.2687554566377314e-09 0.0000000000000000e+00  -2.3581230298835410e-10 -1.0965320254483130e-09 0.0000000000000000e+00  -2.9453552984664675e-10 1.5878130304921166e-09 0.0000000000000000e+00  -3.6741427521553369e-10 1.5740336255303666e-09 0.0000000000000000e+00  -6.2760608493544869e-10 1.5965904246377219e-09 0.0000000000000000e+00  -9.2716733721722851e-10 1.5661567005879694e-09 0.0000000000000000e+00  -1.2240487924550674e-09 1.4756531795478071e-09 0.0000000000000000e+00  -1.5004027591724430e-09 1.3271034590868234e-09 0.0000000000000000e+00  -1.7436630022183421e-09 1.1258968140125583e-09 0.0000000000000000e+00  -1.9434293413094924e-09 8.7983540640144934e-10 0.0000000000000000e+00  -2.0912757883939253e-09 5.9862975887664581e-10 0.0000000000000000e+00  -2.1809903041124571e-09 2.9342899901898973e-10 0.0000000000000000e+00  -2.2088025006372997e-09 -2.3657292952607343e-11 0.0000000000000000e+00  -2.1735258023043535e-09 -3.4004641848281841e-10 0.0000000000000000e+00  -2.0766046115087052e-09 -6.4317492745467685e-10 0.0000000000000000e+00  -1.9220659477502273e-09 -9.2099211949545299e-10 0.0000000000000000e+00  -1.7163765010252518e-09 -1.1624499433846920e-09 0.0000000000000000e+00  -1.4682189787416438e-09 -1.3579808849807476e-09 0.0000000000000000e+00  -1.1882799094877706e-09 -1.4999443099941556e-09 0.0000000000000000e+00  -8.8955019323642553e-10 -1.5829698750277599e-09 0.0000000000000000e+00  -5.9068900640709695e-10 -1.6037485269255136e-09 0.0000000000000000e+00  -3.3429297581407425e-10 -1.5558061527622911e-09 0.0000000000000000e+00  -2.5637848091418611e-10 -1.3580896369762585e-09 0.0000000000000000e+00  -3.2696127960273978e-10 1.8769434502299461e-09 0.0000000000000000e+00  -3.9527107877839235e-10 1.8810249390482521e-09 0.0000000000000000e+00  -6.7211990384137519e-10 1.9143003516336437e-09 0.0000000000000000e+00  -9.9357179229072412e-10 1.8818293585263967e-09 0.0000000000000000e+00  -1.3130689993211101e-09 1.7760406546243646e-09 0.0000000000000000e+00  -1.6108766327660525e-09 1.5994712451343045e-09 0.0000000000000000e+00  -1.8731694661070853e-09 1.3586803790676181e-09 0.0000000000000000e+00  -2.0885700448733575e-09 1.0631758432625506e-09 0.0000000000000000e+00  -2.2479048039795700e-09 7.2479147665472662e-10 0.0000000000000000e+00  -2.3444364155431157e-09 3.5710441861367774e-10 0.0000000000000000e+00  -2.3740884940802914e-09 -2.5149657742740727e-11 0.0000000000000000e+00  -2.3355855164134103e-09 -4.0666392085538117e-10 0.0000000000000000e+00  -2.2304999780061118e-09 -7.7214920720659449e-10 0.0000000000000000e+00  -2.0632068345845779e-09 -1.1069247744034541e-09 0.0000000000000000e+00  -1.8407448836476299e-09 -1.3975103497999149e-09 0.0000000000000000e+00  -1.5725974675734630e-09 -1.6322131971620222e-09 0.0000000000000000e+00  -1.2704910844615189e-09 -1.8016888285951712e-09 0.0000000000000000e+00  -9.4876367352465500e-10 -1.8993942907711411e-09 0.0000000000000000e+00  -6.2811475238797590e-10 -1.9214480735937603e-09 0.0000000000000000e+00  -3.5574622000797433e-10 -1.8611676519516532e-09 0.0000000000000000e+00  -2.8143181754821844e-10 -1.6336055987518001e-09 0.0000000000000000e+00  -3.6483991327187581e-10 2.1824799799675472e-09 0.0000000000000000e+00  -4.2615244797194838e-10 2.2085806028525634e-09 0.0000000000000000e+00  -7.2102163302498986e-10 2.2553234233612207e-09 0.0000000000000000e+00  -1.0667921430573249e-09 2.2219023170475719e-09 0.0000000000000000e+00  -1.4115830810402469e-09 2.1003476820525777e-09 0.0000000000000000e+00  -1.7334330798609170e-09 1.8938915825638893e-09 0.0000000000000000e+00  -2.0170543565888868e-09 1.6104846820784091e-09 0.0000000000000000e+00  -2.2499606596721784e-09 1.2615758914666735e-09 0.0000000000000000e+00  -2.4221510560352378e-09 8.6136055589962147e-10 0.0000000000000000e+00  -2.5263193018038160e-09 4.2607722813943615e-10 0.0000000000000000e+00  -2.5580619585032326e-09 -2.6685348743739683e-11 0.0000000000000000e+00  -2.5160069414969937e-09 -4.7867255548669340e-10 0.0000000000000000e+00  -2.4018579974189976e-09 -9.1164351922527229e-10 0.0000000000000000e+00  -2.2203563177204438e-09 -1.3080539035037117e-09 0.0000000000000000e+00  -1.9791566861202677e-09 -1.6517483235149652e-09 0.0000000000000000e+00  -1.6886268470213634e-09 -1.9286603431663222e-09 0.0000000000000000e+00  -1.3616729229072389e-09 -2.1274975671422040e-09 0.0000000000000000e+00  -1.0141969915993056e-09 -2.2403206946396891e-09 0.0000000000000000e+00  -6.6930084744786441e-10 -2.2624935348554864e-09 0.0000000000000000e+00  -3.7962455454465305e-10 -2.1870003284235708e-09 0.0000000000000000e+00  -3.1126601514100445e-10 -1.9246547204621742e-09 0.0000000000000000e+00  -4.0857108594914156e-10 2.5046328660371514e-09 0.0000000000000000e+00  -4.5935736488762457e-10 2.5581605434131765e-09 0.0000000000000000e+00  -7.7278147784144062e-10 2.6217461064040405e-09 0.0000000000000000e+00  -1.1445432896667604e-09 2.5887639032259470e-09 0.0000000000000000e+00  -1.5165788737035230e-09 2.4509986110560029e-09 0.0000000000000000e+00  -1.8643663507866193e-09 2.2126160749920278e-09 0.0000000000000000e+00  -2.1709769875771561e-09 1.8832410594104311e-09 0.0000000000000000e+00  -2.4227175792042581e-09 1.4765559356076408e-09 0.0000000000000000e+00  -2.6087149078105835e-09 1.0093981850929167e-09 0.0000000000000000e+00  -2.7210802238924080e-09 5.0092701529928417e-10 0.0000000000000000e+00  -2.7550815253540987e-09 -2.8176721017165446e-11 0.0000000000000000e+00  -2.7092477482866385e-09 -5.5648219232007035e-10 0.0000000000000000e+00  -2.5854068642678737e-09 -1.0625650786386557e-09 0.0000000000000000e+00  -2.3886611429282442e-09 -1.5257691393811898e-09 0.0000000000000000e+00  -2.1272933118203934e-09 -1.9269913442417912e-09 0.0000000000000000e+00  -1.8126052758867049e-09 -2.2494966216783221e-09 0.0000000000000000e+00  -1.4587928951634758e-09 -2.4797407061342434e-09 0.0000000000000000e+00  -1.0835206203205197e-09 -2.6081001523187860e-09 0.0000000000000000e+00  -7.1265540848103451e-10 -2.6289490114417465e-09 0.0000000000000000e+00  -4.0515714848069059e-10 -2.5348037010816858e-09 0.0000000000000000e+00  -3.4620054654415254e-10 -2.2321493158471388e-09 0.0000000000000000e+00  -4.5858912753632978e-10 2.8424916349855319e-09 0.0000000000000000e+00  -4.9393668056626960e-10 2.9302976287253818e-09 0.0000000000000000e+00  -8.2535303889449177e-10 3.0147802171251672e-09 0.0000000000000000e+00  -1.2237475725482277e-09 2.9839504683681803e-09 0.0000000000000000e+00  -1.6239619262213446e-09 2.8295895734122514e-09 0.0000000000000000e+00  -1.9985903324204838e-09 2.5571152227762818e-09 0.0000000000000000e+00  -2.3289255379672455e-09 2.1781855759435704e-09 0.0000000000000000e+00  -2.6000254783957505e-09 1.7090719556029087e-09 0.0000000000000000e+00  -2.8001591657634458e-09 1.1695751591550875e-09 0.0000000000000000e+00  -2.9208929390482788e-09 5.8205008483496841e-10 0.0000000000000000e+00  -2.9571980582732391e-09 -2.9495711025438099e-11 0.0000000000000000e+00  -2.9075113711330531e-09 -6.4024189193195187e-10 0.0000000000000000e+00  -2.7737616485345696e-09 -1.2253626679777075e-09 0.0000000000000000e+00  -2.5613681395486044e-09 -1.7608420216978031e-09 0.0000000000000000e+00  -2.2791994587958647e-09 -2.2243350657425774e-09 0.0000000000000000e+00  -1.9394827575463609e-09 -2.5960959350391181e-09 0.0000000000000000e+00  -1.5577619564030176e-09 -2.8599552758714094e-09 0.0000000000000000e+00  -1.1536285230989872e-09 -3.0042371213725498e-09 0.0000000000000000e+00  -7.5607503488616511e-10 -3.0220166286390844e-09 0.0000000000000000e+00  -4.3132113329186604e-10 -2.9051806371189155e-09 0.0000000000000000e+00  -3.8658183747159285e-10 -2.5561093278517506e-09 0.0000000000000000e+00  -5.1536349369752381e-10 3.1936973583008950e-09 0.0000000000000000e+00  -5.2861734606294057e-10 3.3242980702442334e-09 0.0000000000000000e+00  -8.7601219724485860e-10 3.4344552833730976e-09 0.0000000000000000e+00  -1.3002780757327685e-09 3.4078208440422049e-09 0.0000000000000000e+00  -1.7281956857847814e-09 3.2365479141112055e-09 0.0000000000000000e+00  -2.1291735214885495e-09 2.9277366847371891e-09 0.0000000000000000e+00  -2.4826517356351108e-09 2.4955389481033381e-09 0.0000000000000000e+00  -2.7724840694805650e-09 1.9592448385548398e-09 0.0000000000000000e+00  -2.9861876772615479e-09 1.3419772761468635e-09 0.0000000000000000e+00  -3.1149001658252015e-09 6.6956148521084824e-10 0.0000000000000000e+00  -3.1533790689510894e-09 -3.0464426514149218e-11 0.0000000000000000e+00  -3.0999905431902546e-09 -7.2972398978869974e-10 0.0000000000000000e+00  -2.9567159939639233e-09 -1.3998165886856606e-09 0.0000000000000000e+00  -2.7291881200798031e-09 -2.0131435693895216e-09 0.0000000000000000e+00  -2.4267362654245224e-09 -2.5438157240100533e-09 0.0000000000000000e+00  -2.0624129031694883e-09 -2.9686864629446103e-09 0.0000000000000000e+00  -1.6530872893378906e-09 -3.2685041166541787e-09 0.0000000000000000e+00  -1.2203887526154005e-09 -3.4290648846603438e-09 0.0000000000000000e+00  -7.9678638462894727e-10 -3.4417295740955559e-09 0.0000000000000000e+00  -4.5676553312565364e-10 -3.2975422366451046e-09 0.0000000000000000e+00  -4.3278222680041818e-10 -2.8953906368499459e-09 0.0000000000000000e+00  -5.7940282015174735e-10 3.5540319020670621e-09 0.0000000000000000e+00  -5.6171722531398933e-10 3.7378560053389609e-09 0.0000000000000000e+00  -9.2117220083414786e-10 3.8792135180872956e-09 0.0000000000000000e+00  -1.3686579376646988e-09 3.8591227498537829e-09 0.0000000000000000e+00  -1.8218704247789124e-09 3.6706760333937859e-09 0.0000000000000000e+00  -2.2467697812823392e-09 3.3232472290532677e-09 0.0000000000000000e+00  -2.6209662444515578e-09 2.8340782973750073e-09 0.0000000000000000e+00  -2.9272830023286118e-09 2.2259990337131261e-09 0.0000000000000000e+00  -3.1527261463343079e-09 1.5258462241371271e-09 0.0000000000000000e+00  -3.2882359752549761e-09 7.6316525281708238e-10 0.0000000000000000e+00  -3.3285140991245350e-09 -3.0841340351529935e-11 0.0000000000000000e+00  -3.2718986424879996e-09 -8.2416786477637881e-10 0.0000000000000000e+00  -3.1203395519111618e-09 -1.5847563982810925e-09 0.0000000000000000e+00  -2.8794925621477159e-09 -2.2812649937997502e-09 0.0000000000000000e+00  -2.5589002088527098e-09 -2.8839704079308283e-09 0.0000000000000000e+00  -2.1722051298585260e-09 -3.3658878273637840e-09 0.0000000000000000e+00  -1.7374573511933812e-09 -3.7041207332840741e-09 0.0000000000000000e+00  -1.2783518579619461e-09 -3.8813165425567734e-09 0.0000000000000000e+00  -8.3116365913471089e-10 -3.8865531797679342e-09 0.0000000000000000e+00  -4.7972398487042396e-10 -3.7097324407378644e-09 0.0000000000000000e+00  -4.8519939618381895e-10 -3.2473446820133963e-09 0.0000000000000000e+00  -6.5126562654630209e-10 3.9169103680205556e-09 0.0000000000000000e+00  -5.9104823988054112e-10 4.1665680211215728e-09 0.0000000000000000e+00  -9.5616754414442966e-10 4.3453884679319066e-09 0.0000000000000000e+00  -1.4217019775194105e-09 4.3344238159650048e-09 0.0000000000000000e+00  -1.8951799432238357e-09 4.1285451285427396e-09 0.0000000000000000e+00  -2.33891659