<?xml version="1.0"?>
<VTKFile type="UnstructuredGrid"  version="0.1"  >
<UnstructuredGrid>
<Piece  NumberOfPoints="651" NumberOfCells="1200">
<Points>
<DataArray  type="Float64"  NumberOfComponents="3"  format="ascii">0 0 0  50000 0 0  100000 0 0  150000 0 0  200000 0 0  250000 0 0  300000 0 0  350000 0 0  400000 0 0  450000 0 0  500000 0 0  550000 0 0  600000 0 0  650000 0 0  700000 0 0  750000 0 0  800000 0 0  850000 0 0  900000 0 0  950000 0 0  1000000 0 0  0 50000 0  50000 50000 0  100000 50000 0  150000 50000 0  200000 50000 0  250000 50000 0  300000 50000 0  350000 50000 0  400000 50000 0  450000 50000 0  500000 50000 0  550000 50000 0  600000 50000 0  650000 50000 0  700000 50000 0  750000 50000 0  800000 50000 0  850000 50000 0  900000 50000 0  950000 50000 0  1000000 50000 0  0 100000 0  50000 100000 0  100000 100000 0  150000 100000 0  200000 100000 0  250000 100000 0  300000 100000 0  350000 100000 0  400000 100000 0  450000 100000 0  500000 100000 0  550000 100000 0  600000 100000 0  650000 100000 0  700000 100000 0  750000 100000 0  800000 100000 0  850000 100000 0  900000 100000 0  950000 100000 0  1000000 100000 0  0 150000 0  50000 150000 0  100000 150000 0  150000 150000 0  200000 150000 0  250000 150000 0  300000 150000 0  350000 150000 0  400000 150000 0  450000 150000 0  500000 150000 0  550000 150000 0  600000 150000 0  650000 150000 0  700000 150000 0  750000 150000 0  800000 150000 0  850000 150000 0  900000 150000 0  950000 150000 0  1000000 150000 0  0 200000 0  50000 200000 0  100000 200000 0  150000 200000 0  200000 200000 0  250000 200000 0  300000 200000 0  350000 200000 0  400000 200000 0  450000 200000 0  500000 200000 0  550000 200000 0  600000 200000 0  650000 200000 0  700000 200000 0  750000 200000 0  800000 200000 0  850000 200000 0  900000 200000 0  950000 200000 0  1000000 200000 0  0 250000 0  50000 250000 0  100000 250000 0  150000 250000 0  200000 250000 0  250000 250000 0  300000 250000 0  350000 250000 0  400000 250000 0  450000 250000 0  500000 250000 0  550000 250000 0  600000 250000 0  650000 250000 0  700000 250000 0  750000 250000 0  800000 250000 0  850000 250000 0  900000 250000 0  950000 250000 0  1000000 250000 0  0 300000 0  50000 300000 0  100000 300000 0  150000 300000 0  200000 300000 0  250000 300000 0  300000 300000 0  350000 300000 0  400000 300000 0  450000 300000 0  500000 300000 0  550000 300000 0  600000 300000 0  650000 300000 0  700000 300000 0  750000 300000 0  800000 300000 0  850000 300000 0  900000 300000 0  950000 300000 0  1000000 300000 0  0 350000 0  50000 350000 0  100000 350000 0  150000 350000 0  200000 350000 0  250000 350000 0  300000 350000 0  350000 350000 0  400000 350000 0  450000 350000 0  500000 350000 0  550000 350000 0  600000 350000 0  650000 350000 0  700000 350000 0  750000 350000 0  800000 350000 0  850000 350000 0  900000 350000 0  950000 350000 0  1000000 350000 0  0 400000 0  50000 400000 0  100000 400000 0  150000 400000 0  200000 400000 0  250000 400000 0  300000 400000 0  350000 400000 0  400000 400000 0  450000 400000 0  500000 400000 0  550000 400000 0  600000 400000 0  650000 400000 0  700000 400000 0  750000 400000 0  800000 400000 0  850000 400000 0  900000 400000 0  950000 400000 0  1000000 400000 0  0 450000 0  50000 450000 0  100000 450000 0  150000 450000 0  200000 450000 0  250000 450000 0  300000 450000 0  350000 450000 0  400000 450000 0  450000 450000 0  500000 450000 0  550000 450000 0  600000 450000 0  650000 450000 0  700000 450000 0  750000 450000 0  800000 450000 0  850000 450000 0  900000 450000 0  950000 450000 0  1000000 450000 0  0 500000 0  50000 500000 0  100000 500000 0  150000 500000 0  200000 500000 0  250000 500000 0  300000 500000 0  350000 500000 0  400000 500000 0  450000 500000 0  500000 500000 0  550000 500000 0  600000 500000 0  650000 500000 0  700000 500000 0  750000 500000 0  800000 500000 0  850000 500000 0  900000 500000 0  950000 500000 0  1000000 500000 0  0 550000 0  50000 550000 0  100000 550000 0  150000 550000 0  200000 550000 0  250000 550000 0  300000 550000 0  350000 550000 0  400000 550000 0  450000 550000 0  500000 550000 0  550000 550000 0  600000 550000 0  650000 550000 0  700000 550000 0  750000 550000 0  800000 550000 0  850000 550000 0  900000 550000 0  950000 550000 0  1000000 550000 0  0 600000 0  50000 600000 0  100000 600000 0  150000 600000 0  200000 600000 0  250000 600000 0  300000 600000 0  350000 600000 0  400000 600000 0  450000 600000 0  500000 600000 0  550000 600000 0  600000 600000 0  650000 600000 0  700000 600000 0  750000 600000 0  800000 600000 0  850000 600000 0  900000 600000 0  950000 600000 0  1000000 600000 0  0 650000 0  50000 650000 0  100000 650000 0  150000 650000 0  200000 650000 0  250000 650000 0  300000 650000 0  350000 650000 0  400000 650000 0  450000 650000 0  500000 650000 0  550000 650000 0  600000 650000 0  650000 650000 0  700000 650000 0  750000 650000 0  800000 650000 0  850000 650000 0  900000 650000 0  950000 650000 0  1000000 650000 0  0 700000 0  50000 700000 0  100000 700000 0  150000 700000 0  200000 700000 0  250000 700000 0  300000 700000 0  350000 700000 0  400000 700000 0  450000 700000 0  500000 700000 0  550000 700000 0  600000 700000 0  650000 700000 0  700000 700000 0  750000 700000 0  800000 700000 0  850000 700000 0  900000 700000 0  950000 700000 0  1000000 700000 0  0 750000 0  50000 750000 0  100000 750000 0  150000 750000 0  200000 750000 0  250000 750000 0  300000 750000 0  350000 750000 0  400000 750000 0  450000 750000 0  500000 750000 0  550000 750000 0  600000 750000 0  650000 750000 0  700000 750000 0  750000 750000 0  800000 750000 0  850000 750000 0  900000 750000 0  950000 750000 0  1000000 750000 0  0 800000 0  50000 800000 0  100000 800000 0  150000 800000 0  200000 800000 0  250000 800000 0  300000 800000 0  350000 800000 0  400000 800000 0  450000 800000 0  500000 800000 0  550000 800000 0  600000 800000 0  650000 800000 0  700000 800000 0  750000 800000 0  800000 800000 0  850000 800000 0  900000 800000 0  950000 800000 0  1000000 800000 0  0 850000 0  50000 850000 0  100000 850000 0  150000 850000 0  200000 850000 0  250000 850000 0  300000 850000 0  350000 850000 0  400000 850000 0  450000 850000 0  500000 850000 0  550000 850000 0  600000 850000 0  650000 850000 0  700000 850000 0  750000 850000 0  800000 850000 0  850000 850000 0  900000 850000 0  950000 850000 0  1000000 850000 0  0 900000 0  50000 900000 0  100000 900000 0  150000 900000 0  200000 900000 0  250000 900000 0  300000 900000 0  350000 900000 0  400000 900000 0  450000 900000 0  500000 900000 0  550000 900000 0  600000 900000 0  650000 900000 0  700000 900000 0  750000 900000 0  800000 900000 0  850000 900000 0  900000 900000 0  950000 900000 0  1000000 900000 0  0 950000 0  50000 950000 0  100000 950000 0  150000 950000 0  200000 950000 0  250000 950000 0  300000 950000 0  350000 950000 0  400000 950000 0  450000 950000 0  500000 950000 0  550000 950000 0  600000 950000 0  650000 950000 0  700000 950000 0  750000 950000 0  800000 950000 0  850000 950000 0  900000 950000 0  950000 950000 0  1000000 950000 0  0 1000000 0  50000 1000000 0  100000 1000000 0  150000 1000000 0  200000 1000000 0  250000 1000000 0  300000 1000000 0  350000 1000000 0  400000 1000000 0  450000 1000000 0  500000 1000000 0  550000 1000000 0  600000 1000000 0  650000 1000000 0  700000 1000000 0  750000 1000000 0  800000 1000000 0  850000 1000000 0  900000 1000000 0  950000 1000000 0  1000000 1000000 0  0 1050000 0  50000 1050000 0  100000 1050000 0  150000 1050000 0  200000 1050000 0  250000 1050000 0  300000 1050000 0  350000 1050000 0  400000 1050000 0  450000 1050000 0  500000 1050000 0  550000 1050000 0  600000 1050000 0  650000 1050000 0  700000 1050000 0  750000 1050000 0  800000 1050000 0  850000 1050000 0  900000 1050000 0  950000 1050000 0  1000000 1050000 0  0 1100000 0  50000 1100000 0  100000 1100000 0  150000 1100000 0  200000 1100000 0  250000 1100000 0  300000 1100000 0  350000 1100000 0  400000 1100000 0  450000 1100000 0  500000 1100000 0  550000 1100000 0  600000 1100000 0  650000 1100000 0  700000 1100000 0  750000 1100000 0  800000 1100000 0  850000 1100000 0  900000 1100000 0  950000 1100000 0  1000000 1100000 0  0 1150000 0  50000 1150000 0  100000 1150000 0  150000 1150000 0  200000 1150000 0  250000 1150000 0  300000 1150000 0  350000 1150000 0  400000 1150000 0  450000 1150000 0  500000 1150000 0  550000 1150000 0  600000 1150000 0  650000 1150000 0  700000 1150000 0  750000 1150000 0  800000 1150000 0  850000 1150000 0  900000 1150000 0  950000 1150000 0  1000000 1150000 0  0 1200000 0  50000 1200000 0  100000 1200000 0  150000 1200000 0  200000 1200000 0  250000 1200000 0  300000 1200000 0  350000 1200000 0  400000 1200000 0  450000 1200000 0  500000 1200000 0  550000 1200000 0  600000 1200000 0  650000 1200000 0  700000 1200000 0  750000 1200000 0  800000 1200000 0  850000 1200000 0  900000 1200000 0  950000 1200000 0  1000000 1200000 0  0 1250000 0  50000 1250000 0  100000 1250000 0  150000 1250000 0  200000 1250000 0  250000 1250000 0  300000 1250000 0  350000 1250000 0  400000 1250000 0  450000 1250000 0  500000 1250000 0  550000 1250000 0  600000 1250000 0  650000 1250000 0  700000 1250000 0  750000 1250000 0  800000 1250000 0  850000 1250000 0  900000 1250000 0  950000 1250000 0  1000000 1250000 0  0 1300000 0  50000 1300000 0  100000 1300000 0  150000 1300000 0  200000 1300000 0  250000 1300000 0  300000 1300000 0  350000 1300000 0  400000 1300000 0  450000 1300000 0  500000 1300000 0  550000 1300000 0  600000 1300000 0  650000 1300000 0  700000 1300000 0  750000 1300000 0  800000 1300000 0  850000 1300000 0  900000 1300000 0  950000 1300000 0  1000000 1300000 0  0 1350000 0  50000 1350000 0  100000 1350000 0  150000 1350000 0  200000 1350000 0  250000 1350000 0  300000 1350000 0  350000 1350000 0  400000 1350000 0  450000 1350000 0  500000 1350000 0  550000 1350000 0  600000 1350000 0  650000 1350000 0  700000 135
[...]
<PointData  Vectors="f_15"> 
<DataArray  type="Float64"  Name="f_15"  NumberOfComponents="3" format="ascii">-3.1533628861952984e-10 3.1897190828001095e-10 0.0000000000000000e+00  -5.8764960650371957e-10 2.6503805303895279e-10 0.0000000000000000e+00  -1.0724465150649960e-09 2.4088575557674992e-10 0.0000000000000000e+00  -1.5411266719642281e-09 2.1963896217110858e-10 0.0000000000000000e+00  -1.9702910999387239e-09 1.9549046621553549e-10 0.0000000000000000e+00  -2.3473759028624736e-09 1.6773662027087432e-10 0.0000000000000000e+00  -2.6621816658030227e-09 1.3660483264510309e-10 0.0000000000000000e+00  -2.9064645417813329e-09 1.0265367169903195e-10 0.0000000000000000e+00  -3.0739222055897159e-09 6.6620494102938180e-11 0.0000000000000000e+00  -3.1603019951249583e-09 2.9346622899715740e-11 0.0000000000000000e+00  -3.1634910104101682e-09 -8.2697792564847126e-12 0.0000000000000000e+00  -3.0835596178088776e-09 -4.5309589476163190e-11 0.0000000000000000e+00  -2.9227529143320834e-09 -8.0864113284562482e-11 0.0000000000000000e+00  -2.6854300649420668e-09 -1.1406541671664313e-10 0.0000000000000000e+00  -2.3779622103432382e-09 -1.4411987052476096e-10 0.0000000000000000e+00  -2.0086550529918821e-09 -1.7035887747810324e-10 0.0000000000000000e+00  -1.5880432097306467e-09 -1.9235842115713894e-10 0.0000000000000000e+00  -1.1311487705943868e-09 -2.1027100854360687e-10 0.0000000000000000e+00  -6.6818364386528187e-10 -2.2449916626297491e-10 0.0000000000000000e+00  -2.9005242644270012e-10 -2.1714981755949836e-10 0.0000000000000000e+00  -1.3069783728961396e-10 -1.3381182717774225e-10 0.0000000000000000e+00  -2.6846576470602984e-10 5.7043919041746498e-10 0.0000000000000000e+00  -4.9741373301792309e-10 4.9472469731489074e-10 0.0000000000000000e+00  -8.8674653570499832e-10 5.0224381628891557e-10 0.0000000000000000e+00  -1.3083608509126760e-09 4.7871781020146640e-10 0.0000000000000000e+00  -1.7100767556638444e-09 4.3626331503471649e-10 0.0000000000000000e+00  -2.0724442833600312e-09 3.8014693146531556e-10 0.0000000000000000e+00  -2.3831836306757800e-09 3.1322703225906646e-10 0.0000000000000000e+00  -2.6330276321646365e-09 2.3781048859973267e-10 0.0000000000000000e+00  -2.8149455197155119e-09 1.5613157338547511e-10 0.0000000000000000e+00  -2.9239841566296700e-09 7.0462691344063531e-11 0.0000000000000000e+00  -2.9572660270670127e-09 -1.6877372443285941e-11 0.0000000000000000e+00  -2.9140059287021605e-09 -1.0355105458667778e-10 0.0000000000000000e+00  -2.7955092360672185e-09 -1.8724162688774850e-10 0.0000000000000000e+00  -2.6051444703865078e-09 -2.6569277363893752e-10 0.0000000000000000e+00  -2.3483007325109998e-09 -3.3673705178178903e-10 0.0000000000000000e+00  -2.0323791790798303e-09 -3.9829257940703712e-10 0.0000000000000000e+00  -1.6670023268905854e-09 -4.4826302126174085e-10 0.0000000000000000e+00  -1.2651666867181399e-09 -4.8402783085281958e-10 0.0000000000000000e+00  -8.4836689616736584e-10 -4.9961427145854999e-10 0.0000000000000000e+00  -4.6856735612144781e-10 -4.7178548766492698e-10 0.0000000000000000e+00  -2.2159769572873806e-10 -2.8169733387961461e-10 0.0000000000000000e+00  -2.6509450483062492e-10 1.0158728275948304e-09 0.0000000000000000e+00  -5.0830727941607486e-10 8.6960171888952728e-10 0.0000000000000000e+00  -8.8167852570626443e-10 8.6743011470596962e-10 0.0000000000000000e+00  -1.2727693038441764e-09 8.3008986301067146e-10 0.0000000000000000e+00  -1.6443908123005020e-09 7.6065274327678776e-10 0.0000000000000000e+00  -1.9803120441933249e-09 6.6588321324657338e-10 0.0000000000000000e+00  -2.2690029961931618e-09 5.5100410842488233e-10 0.0000000000000000e+00  -2.5015227731431308e-09 4.2038897262883721e-10 0.0000000000000000e+00  -2.6710406977761548e-09 2.7818408755557054e-10 0.0000000000000000e+00  -2.7727477050939259e-09 1.2852938728582377e-10 0.0000000000000000e+00  -2.8038469371249179e-09 -2.4394158210234375e-11 0.0000000000000000e+00  -2.7635578982824762e-09 -1.7638834076266773e-10 0.0000000000000000e+00  -2.6531106548967450e-09 -3.2328802833971331e-10 0.0000000000000000e+00  -2.4757235599889625e-09 -4.6101155413231121e-10 0.0000000000000000e+00  -2.2365731489562189e-09 -5.8558499516922004e-10 0.0000000000000000e+00  -1.9427939884704718e-09 -6.9309497213366663e-10 0.0000000000000000e+00  -1.6036395326476069e-09 -7.7946339896402335e-10 0.0000000000000000e+00  -1.2312916946510847e-09 -8.3976679700532835e-10 0.0000000000000000e+00  -8.4415998909143926e-10 -8.6634070664874029e-10 0.0000000000000000e+00  -4.8280771042548500e-10 -8.4568732394346038e-10 0.0000000000000000e+00  -2.3629715544075227e-10 -6.2852534660884266e-10 0.0000000000000000e+00  -2.7598536155613762e-10 1.4542163553250178e-09 0.0000000000000000e+00  -5.0467398560925507e-10 1.2901427574692233e-09 0.0000000000000000e+00  -8.7087163301951398e-10 1.2615410165798186e-09 0.0000000000000000e+00  -1.2512516063943794e-09 1.2003145773572350e-09 0.0000000000000000e+00  -1.6085660461387639e-09 1.0997146328000381e-09 0.0000000000000000e+00  -1.9293261045487712e-09 9.6424224025001288e-10 0.0000000000000000e+00  -2.2040813572274870e-09 7.9981961271038544e-10 0.0000000000000000e+00  -2.4249494077707557e-09 6.1237689388601067e-10 0.0000000000000000e+00  -2.5856585819135089e-09 4.0784870375003147e-10 0.0000000000000000e+00  -2.6817110927568477e-09 1.9224764398377611e-10 0.0000000000000000e+00  -2.7104779295729573e-09 -2.8333331045055553e-11 0.0000000000000000e+00  -2.6712414304518556e-09 -2.4777084559019978e-10 0.0000000000000000e+00  -2.5652007826609196e-09 -4.5998475863102545e-10 0.0000000000000000e+00  -2.3954471335222925e-09 -6.5901163166432524e-10 0.0000000000000000e+00  -2.1669124724732559e-09 -8.3905379805223201e-10 0.0000000000000000e+00  -1.8863053061723006e-09 -9.9447344385058427e-10 0.0000000000000000e+00  -1.5621004811170626e-09 -1.1196966217567244e-09 0.0000000000000000e+00  -1.2049395571757470e-09 -1.2090354248866551e-09 0.0000000000000000e+00  -8.3025282678355419e-10 -1.2565108333522218e-09 0.0000000000000000e+00  -4.7558464994275761e-10 -1.2553276939894446e-09 0.0000000000000000e+00  -2.3937055500738612e-10 -1.0503409326647631e-09 0.0000000000000000e+00  -2.9438549740747215e-10 1.8832150097312167e-09 0.0000000000000000e+00  -5.0455474386184562e-10 1.7108828559187267e-09 0.0000000000000000e+00  -8.6507804386452478e-10 1.6593021561092461e-09 0.0000000000000000e+00  -1.2415003189694906e-09 1.5703037898819414e-09 0.0000000000000000e+00  -1.5936675267799189e-09 1.4357683887969263e-09 0.0000000000000000e+00  -1.9080040226473127e-09 1.2586596720121243e-09 0.0000000000000000e+00  -2.1759928558242351e-09 1.0449142236728460e-09 0.0000000000000000e+00  -2.3906551537233705e-09 8.0147936891103543e-10 0.0000000000000000e+00  -2.5463279797493927e-09 5.3578280629064833e-10 0.0000000000000000e+00  -2.6388870401434710e-09 2.5554922608664967e-10 0.0000000000000000e+00  -2.6659148891871635e-09 -3.1315337385397068e-11 0.0000000000000000e+00  -2.6267844846732623e-09 -3.1683712275550432e-10 0.0000000000000000e+00  -2.5226804842372785e-09 -5.9309377678202779e-10 0.0000000000000000e+00  -2.3565706467900215e-09 -8.5233235750252900e-10 0.0000000000000000e+00  -2.1331295418937387e-09 -1.0870780272047688e-09 0.0000000000000000e+00  -1.8586197009484230e-09 -1.2902329767637430e-09 0.0000000000000000e+00  -1.5408016578815080e-09 -1.4551962314714721e-09 0.0000000000000000e+00  -1.1893343782284735e-09 -1.5761162174772737e-09 0.0000000000000000e+00  -8.1900902917865408e-10 -1.6482542860227403e-09 0.0000000000000000e+00  -4.6971186121968540e-10 -1.6667418964755879e-09 0.0000000000000000e+00  -2.5002367779841272e-10 -1.4763246514242716e-09 0.0000000000000000e+00  -3.1900831849493819e-10 2.3082374600209022e-09 0.0000000000000000e+00  -5.1035155397203546e-10 2.1288638375538170e-09 0.0000000000000000e+00  -8.6749437286884196e-10 2.0579367144129487e-09 0.0000000000000000e+00  -1.2439767892883377e-09 1.9407074363795328e-09 0.0000000000000000e+00  -1.5963095537672275e-09 1.7707062646871712e-09 0.0000000000000000e+00  -1.9099306218810903e-09 1.5508627545109976e-09 0.0000000000000000e+00  -2.1763711485477789e-09 1.2874058203252489e-09 0.0000000000000000e+00  -2.3890608733066036e-09 9.8816023994706443e-10 0.0000000000000000e+00  -2.5427533127930665e-09 6.6186040570967286e-10 0.0000000000000000e+00  -2.6336388907599977e-09 3.1779264097979158e-10 0.0000000000000000e+00  -2.6595011472841110e-09 -3.4440766261631000e-11 0.0000000000000000e+00  -2.6198099760423405e-09 -3.8511491920986020e-10 0.0000000000000000e+00  -2.5157499086389752e-09 -7.2456209420414860e-10 0.0000000000000000e+00  -2.3501909914731841e-09 -1.0433489574874894e-09 0.0000000000000000e+00  -2.1276051492787299e-09 -1.3324596118757641e-09 0.0000000000000000e+00  -1.8539429729858781e-09 -1.5835027096897984e-09 0.0000000000000000e+00  -1.5365855385308835e-09 -1.7889865738916733e-09 0.0000000000000000e+00  -1.1849754933372095e-09 -1.9427316763238981e-09 0.0000000000000000e+00  -8.1463184449624479e-10 -2.0401582972101104e-09 0.0000000000000000e+00  -4.6909307805494006e-10 -2.0763279680430440e-09 0.0000000000000000e+00  -2.6733468726437863e-10 -1.8960438852858077e-09 0.0000000000000000e+00  -3.4941814409813442e-10 2.7341452353460106e-09 0.0000000000000000e+00  -5.2180837954486868e-10 2.5477279651889911e-09 0.0000000000000000e+00  -8.7795105992718031e-10 2.4591909587678191e-09 0.0000000000000000e+00  -1.2574555437217274e-09 2.3142279721998075e-09 0.0000000000000000e+00  -1.6133113099747742e-09 2.1080058316925628e-09 0.0000000000000000e+00  -1.9297912744919004e-09 1.8443731084685639e-09 0.0000000000000000e+00  -2.1980890008555549e-09 1.5303330264140131e-09 0.0000000000000000e+00  -2.4116881779112988e-09 1.1747131458560606e-09 0.0000000000000000e+00  -2.5655405425963282e-09 7.8752633275268002e-10 0.0000000000000000e+00  -2.6560435342366153e-09 3.7954401232055609e-10 0.0000000000000000e+00  -2.6811382522633088e-09 -3.8021361541168762e-11 0.0000000000000000e+00  -2.6403821837471647e-09 -4.5377916455647404e-10 0.0000000000000000e+00  -2.5349730943796793e-09 -8.5640000160911947e-10 0.0000000000000000e+00  -2.3677235860777344e-09 -1.2348518782609024e-09 0.0000000000000000e+00  -2.1429904162657449e-09 -1.5786508732786847e-09 0.0000000000000000e+00  -1.8665865971636056e-09 -1.8781482865640822e-09 0.0000000000000000e+00  -1.5458294309758282e-09 -2.1248831022967794e-09 0.0000000000000000e+00  -1.1904250256170940e-09 -2.3120088129809865e-09 0.0000000000000000e+00  -8.1713416459173239e-10 -2.4344178190070914e-09 0.0000000000000000e+00  -4.7353873033566144e-10 -2.4864779077637539e-09 0.0000000000000000e+00  -2.9042631480585737e-10 -2.3119221858939470e-09 0.0000000000000000e+00  -3.8545340369877502e-10 3.1645907487492173e-09 0.0000000000000000e+00  -5.3788684484665353e-10 2.9709405716863573e-09 0.0000000000000000e+00  -8.9469915219234012e-10 2.8656061299304220e-09 0.0000000000000000e+00  -1.2792353941601363e-09 2.6932055802742838e-09 0.0000000000000000e+00  -1.6406307018748536e-09 2.4502364578319856e-09 0.0000000000000000e+00  -1.9619803751484032e-09 2.1418069450274144e-09 0.0000000000000000e+00  -2.2340372277397527e-09 1.7760593622066811e-09 0.0000000000000000e+00  -2.4501771079794675e-09 1.3630264841201364e-09 0.0000000000000000e+00  -2.6054129577456449e-09 9.1406644526116502e-10 0.0000000000000000e+00  -2.6962643681538344e-09 4.4142613130200966e-10 0.0000000000000000e+00  -2.7207881295382188e-09 -4.2118293842805999e-11 0.0000000000000000e+00  -2.6786159687253271e-09 -5.2357098625124636e-10 0.0000000000000000e+00  -2.5709671191808342e-09 -9.9000089505968403e-10 0.0000000000000000e+00  -2.4006303652856417e-09 -1.4288238518702883e-09 0.0000000000000000e+00  -2.1719198990210864e-09 -1.8281032032828806e-09 0.0000000000000000e+00  -1.8906405213648995e-09 -2.1768877961117912e-09 0.0000000000000000e+00  -1.5642377550681256e-09 -2.4655988071355270e-09 0.0000000000000000e+00  -1.2029003086413699e-09 -2.6864399167636279e-09 0.0000000000000000e+00  -8.2480873287466035e-10 -2.8334286180259437e-09 0.0000000000000000e+00  -4.8194617671085073e-10 -2.9000851487889755e-09 0.0000000000000000e+00  -3.1895824718229988e-10 -2.7279957755657737e-09 0.0000000000000000e+00  -4.2710394159718575e-10 3.6016992678729397e-09 0.0000000000000000e+00  -5.5720812123692999e-10 3.4008405347483828e-09 0.0000000000000000e+00  -9.1516565456524611e-10 3.2789878273112574e-09 0.0000000000000000e+00  -1.3055631836505754e-09 3.0790795167686525e-09 0.0000000000000000e+00  -1.6732288268533412e-09 2.7987552216035795e-09 0.0000000000000000e+00  -2.0000818182535387e-09 2.4444924493455207e-09 0.0000000000000000e+00  -2.2764555638487149e-09 2.0257990854936297e-09 0.0000000000000000e+00  -2.4955971215070829e-09 1.5540944683660034e-09 0.0000000000000000e+00  -2.6525449210770562e-09 1.0421785979648557e-09 0.0000000000000000e+00  -2.7439132378153662e-09 5.0379824971090660e-10 0.0000000000000000e+00  -2.7678593157521532e-09 -4.6728945472963607e-11 0.0000000000000000e+00  -2.7240819933887591e-09 -5.9484614886327267e-10 0.0000000000000000e+00  -2.6138208194559777e-09 -1.1260648055434224e-09 0.0000000000000000e+00  -2.4398494602482531e-09 -1.6262720583368476e-09 0.0000000000000000e+00  -2.2064665957494521e-09 -2.0820609268164014e-09 0.0000000000000000e+00  -1.9195208279067303e-09 -2.4810994496155532e-09 0.0000000000000000e+00  -1.5866567773683829e-09 -2.8125402583359945e-09 0.0000000000000000e+00  -1.2186131086107909e-09 -3.0674326485391983e-09 0.0000000000000000e+00  -8.3507120494030391e-10 -3.2387429879085344e-09 0.0000000000000000e+00  -4.9285907741277036e-10 -3.3191268876037441e-09 0.0000000000000000e+00  -3.5281249662170651e-10 -3.1473399899147605e-09 0.0000000000000000e+00  -4.7445348347301473e-10 4.0458618967859336e-09 0.0000000000000000e+00  -5.7814229690987785e-10 3.8382939286765399e-09 0.0000000000000000e+00  -9.3617278152994340e-10 3.6998442033832754e-09 0.0000000000000000e+00  -1.3317807823131534e-09 3.4720416196691821e-09 0.0000000000000000e+00  -1.7049887497504060e-09 3.1535920742427214e-09 0.0000000000000000e+00  -2.0365349581993378e-09 2.7524152797251477e-09 0.0000000000000000e+00  -2.3164182774664789e-09 2.2795375134162655e-09 0.0000000000000000e+00  -2.5378339674463154e-09 1.7479097537877549e-09 0.0000000000000000e+00  -2.6959032229388396e-09 1.1718631870414565e-09 0.0000000000000000e+00  -2.7873757999896378e-09 5.6667013813310978e-10 0.0000000000000000e+00  -2.8105334949718843e-09 -5.1833962774038410e-11 0.0000000000000000e+00  -2.7651470537516458e-09 -6.6758050120517272e-10 0.0000000000000000e+00  -2.6524618480263362e-09 -1.2645716694311856e-09 0.0000000000000000e+00  -2.4752077939203436e-09 -1.8271878296052715e-09 0.0000000000000000e+00  -2.2376341433646280e-09 -2.3405263377371323e-09 0.0000000000000000e+00  -1.9456018508091718e-09 -2.7907899690376110e-09 0.0000000000000000e+00  -1.6069275517885975e-09 -3.1657240695568482e-09 0.0000000000000000e+00  -1.2328809932508800e-09 -3.4550630221065272e-09 0.0000000000000000e+00  -8.4470045026670984e-10 -3.6506068357882954e-09 0.0000000000000000e+00  -5.0456044977721907e-10 -3.7441526566630343e-09 0.0000000000000000e+00  -3.9197892679455318e-10 -3.5714705416530024e-09 0.0000000000000000e+00  -5.2764855993481830e-10 4.4954853399354610e-09 0.0000000000000000e+00  -5.9878115654101934e-10 4.2823936285924364e-09 0.0000000000000000e+00  -9.5392387678395183e-10 4.1270246915082854e-09 0.0000000000000000e+00  -1.3522697045754834e-09 3.8707058089736847e-09 0.0000000000000000e+00  -1.7285389830760799e-09 3.5132372841978118e-09 0.0000000000000000e+00  -2.0622952204021802e-09 3.0640835668045459e-09 0.0000000000000000e+00  -2.3433414790668363e-09 2.5359274073618028e-09 0.0000000000000000e+00  -2.5649815246661355e-09 1.9433736418167560e-09 0.0000000000000000e+00  -2.7225649150670598e-09 1.3023520219902136e-09 0.0000000000000000e+00  -2.8130905947931417e-09 6.2966136816222541e-10 0.0000000000000000e+00  -2.8350349088880431e-09 -5.7399131120172308e-11 0.0000000000000000e+00  -2.7882595352290473e-09 -7.4133218894941010e-10 0.0000000000000000e+00  -2.6739833785199837e-09 -1.4047107513895702e-09 0.0000000000000000e+00  -2.4948167042485341e-09 -2.0304541605865671e-09 0.0000000000000000e+00  -2.2548539853551014e-09 -2.6021521929492237e-09 0.0000000000000000e+00  -1.9598506134035666e-09 -3.1044636047183984e-09 0.0000000000000000e+00  -1.6176819190268834e-09 -3.5235921066293365e-09 0.0000000000000000e+00  -1.2400666953244195e-09 -3.8478027237143301e-09 0.0000000000000000e+00  -8.4984090574455885e-10 -4.0676132221658492e-09 0.0000000000000000e+00  -5.1504965161536916e-10 -4.1739528145000068e-09 0.0000000000000000e+00  -4.3651207459997165e-10 -4.0000909545250422e-09 0.0000000000000000e+00  -5.8688088277092388e-10 4.9466591882340292e-09 0.0000000000000000e+00  -6.1686736859939052e-10 4.7301239392297732e-09 0.0000000000000000e+00  -9.6388448371924256e-10 4.5573500484269587e-09 0.0000000000000000e+00  -1.3602685651216179e-09 4.2717379359690541e-09 0.0000000000000000e+00  -1.7349710589405603e-09 3.8743182766628785e-09 0.0000000000000000e+00  -2.0664227205579864e-09 3.3762643420930655e-09 0.0000000000000000e+00  -2.3444377639216068e-09 2.7920768689837131e-09 0.0000000000000000e+00  -2.5626804697659438e-09 2.1381313174289531e-09 0.0000000000000000e+00  -2.7169708790923684e-09 1.4319954823224551e-09 0.0000000000000000e+00  -2.8047526810146307e-09 6.9194845341683692e-10 0.0000000000000000e+00  -2.8248193619881057e-09 -6.3362800297671104e-11 0.0000000000000000e+00  -2.7771578809644943e-09 -8.1516433934633273e-10 0.0000000000000000e+00  -2.6629046435718027e-09 -1.5447456533319692e-09 0.0000000000000000e+00  -2.4844153569981756e-09 -2.2336635719888424e-09 0.0000000000000000e+00  -2.2454391281100293e-09 -2.8640211292551562e-09 0.0000000000000000e+00  -1.9514104575417871e-09 -3.4188647666193677e-09 0.0000000000000000e+00  -1.6100587562594272e-09 -3.8827122646660810e-09 0.0000000000000000e+00  -1.2334043694365396e-09 -4.2421777818080141e-09 0.0000000000000000e+00  -8.4589704868436234e-10 -4.4863409713461244e-09 0.0000000000000000e+00  -5.2197488823994016e-10 -4.6052204912162151e-09 0.0000000000000000e+00  -4.8650950863181524e-10 -4.4308322455460092e-09 0.0000000000000000e+00  -6.5237885804860552e-10 5.3927235524968524e-09 0.0000000000000000e+00  -6.2970219995237692e-10 5.1759503277936485e-09 0.0000000000000000e+00  -9.6060668259574793e-10 4.9851755308301259e-09 0.0000000000000000e+00  -1.3476050332014839e-09 4.6694066372116373e-09 0.0000000000000000e+00  -1.7134602617277914e-09 4.2311663420058619e-09 0.0000000000000000e+00  -2.0355741335592174e-09 3.6835912540655535e-09 0.0000000000000000e+00  -2.3040750354494615e-09 3.0432143019707934e-09 0.0000000000000000e+00  -2.5133572388740399e-09 2.3283076863227339e-09 0.0000000000000000e+00  -2.6600723249973781e-09 1.5580828025246002e-09 0.0000000000000000e+00  -2.7424036998012636e-09 7.5218109824925778e-10 0.0000000000000000e+00  -2.7596476660591786e-09 -6.9617644592786822e-11 0.0000000000000000e+00  -2.7119675846731350e-09 -8.8752657565752636e-10 0.0000000000000000e+00  -2.6003293834522180e-09 -1.6818051935250679e-09 0.0000000000000000e+00  -2.4266237065164511e-09 -2.4328336362923278e-09 0.0000000000000000e+00  -2.1939565861730121e-09 -3.1213030259401446e-09 0.0000000000000000e+00  -1.9071058167661933e-09 -3.7285927698337429e-09 0.0000000000000000e+00  -1.5733381784867025e-09 -4.2373637626467291e-09 0.0000000000000000e+00  -1.2047451670711141e-09 -4.6323384871625888e-09 0.0000000000000000e+00  -8.2736674158292287e-10 -4.9009277359515289e-09 0.0000000000000000e+00  -5.2254089783289414e-10 -5.0321471224097254e-09 0.0000000000000000e+00  -5.4209875797195826e-10 -4.8589119872596186e-09 0.0000000000000000e+00  -7.2440872525445336e-10 5.8237218232857095e-09 0.0000000000000000e+00  -6.3403833349010312e-10 5.6113090003940347e-09 0.0000000000000000e+00  -9.3751228663576553e-10 5.4018551919615567e-09 0.0000000000000000e+00  -1.3043578460341566e-09 5.0550253188884437e-09 0.0000000000000000e+00  -1.6507915017342300e-09 4.5752576796748802e-09 0.0000000000000000e+00  -1.95338082