<?xml version="1.0"?>
<VTKFile type="UnstructuredGrid"  version="0.1"  >
<UnstructuredGrid>
<Piece  NumberOfPoints="651" NumberOfCells="1200">
<Points>
<DataArray  type="Float64"  NumberOfComponents="3"  format="ascii">0 0 0  50000 0 0  100000 0 0  150000 0 0  200000 0 0  250000 0 0  300000 0 0  350000 0 0  400000 0 0  450000 0 0  500000 0 0  550000 0 0  600000 0 0  650000 0 0  700000 0 0  750000 0 0  800000 0 0  850000 0 0  900000 0 0  950000 0 0  1000000 0 0  0 50000 0  50000 50000 0  100000 50000 0  150000 50000 0  200000 50000 0  250000 50000 0  300000 50000 0  350000 50000 0  400000 50000 0  450000 50000 0  500000 50000 0  550000 50000 0  600000 50000 0  650000 50000 0  700000 50000 0  750000 50000 0  800000 50000 0  850000 50000 0  900000 50000 0  950000 50000 0  1000000 50000 0  0 100000 0  50000 100000 0  100000 100000 0  150000 100000 0  200000 100000 0  250000 100000 0  300000 100000 0  350000 100000 0  400000 100000 0  450000 100000 0  500000 100000 0  550000 100000 0  600000 100000 0  650000 100000 0  700000 100000 0  750000 100000 0  800000 100000 0  850000 100000 0  900000 100000 0  950000 100000 0  1000000 100000 0  0 150000 0  50000 150000 0  100000 150000 0  150000 150000 0  200000 150000 0  250000 150000 0  300000 150000 0  350000 150000 0  400000 150000 0  450000 150000 0  500000 150000 0  550000 150000 0  600000 150000 0  650000 150000 0  700000 150000 0  750000 150000 0  800000 150000 0  850000 150000 0  900000 150000 0  950000 150000 0  1000000 150000 0  0 200000 0  50000 200000 0  100000 200000 0  150000 200000 0  200000 200000 0  250000 200000 0  300000 200000 0  350000 200000 0  400000 200000 0  450000 200000 0  500000 200000 0  550000 200000 0  600000 200000 0  650000 200000 0  700000 200000 0  750000 200000 0  800000 200000 0  850000 200000 0  900000 200000 0  950000 200000 0  1000000 200000 0  0 250000 0  50000 250000 0  100000 250000 0  150000 250000 0  200000 250000 0  250000 250000 0  300000 250000 0  350000 250000 0  400000 250000 0  450000 250000 0  500000 250000 0  550000 250000 0  600000 250000 0  650000 250000 0  700000 250000 0  750000 250000 0  800000 250000 0  850000 250000 0  900000 250000 0  950000 250000 0  1000000 250000 0  0 300000 0  50000 300000 0  100000 300000 0  150000 300000 0  200000 300000 0  250000 300000 0  300000 300000 0  350000 300000 0  400000 300000 0  450000 300000 0  500000 300000 0  550000 300000 0  600000 300000 0  650000 300000 0  700000 300000 0  750000 300000 0  800000 300000 0  850000 300000 0  900000 300000 0  950000 300000 0  1000000 300000 0  0 350000 0  50000 350000 0  100000 350000 0  150000 350000 0  200000 350000 0  250000 350000 0  300000 350000 0  350000 350000 0  400000 350000 0  450000 350000 0  500000 350000 0  550000 350000 0  600000 350000 0  650000 350000 0  700000 350000 0  750000 350000 0  800000 350000 0  850000 350000 0  900000 350000 0  950000 350000 0  1000000 350000 0  0 400000 0  50000 400000 0  100000 400000 0  150000 400000 0  200000 400000 0  250000 400000 0  300000 400000 0  350000 400000 0  400000 400000 0  450000 400000 0  500000 400000 0  550000 400000 0  600000 400000 0  650000 400000 0  700000 400000 0  750000 400000 0  800000 400000 0  850000 400000 0  900000 400000 0  950000 400000 0  1000000 400000 0  0 450000 0  50000 450000 0  100000 450000 0  150000 450000 0  200000 450000 0  250000 450000 0  300000 450000 0  350000 450000 0  400000 450000 0  450000 450000 0  500000 450000 0  550000 450000 0  600000 450000 0  650000 450000 0  700000 450000 0  750000 450000 0  800000 450000 0  850000 450000 0  900000 450000 0  950000 450000 0  1000000 450000 0  0 500000 0  50000 500000 0  100000 500000 0  150000 500000 0  200000 500000 0  250000 500000 0  300000 500000 0  350000 500000 0  400000 500000 0  450000 500000 0  500000 500000 0  550000 500000 0  600000 500000 0  650000 500000 0  700000 500000 0  750000 500000 0  800000 500000 0  850000 500000 0  900000 500000 0  950000 500000 0  1000000 500000 0  0 550000 0  50000 550000 0  100000 550000 0  150000 550000 0  200000 550000 0  250000 550000 0  300000 550000 0  350000 550000 0  400000 550000 0  450000 550000 0  500000 550000 0  550000 550000 0  600000 550000 0  650000 550000 0  700000 550000 0  750000 550000 0  800000 550000 0  850000 550000 0  900000 550000 0  950000 550000 0  1000000 550000 0  0 600000 0  50000 600000 0  100000 600000 0  150000 600000 0  200000 600000 0  250000 600000 0  300000 600000 0  350000 600000 0  400000 600000 0  450000 600000 0  500000 600000 0  550000 600000 0  600000 600000 0  650000 600000 0  700000 600000 0  750000 600000 0  800000 600000 0  850000 600000 0  900000 600000 0  950000 600000 0  1000000 600000 0  0 650000 0  50000 650000 0  100000 650000 0  150000 650000 0  200000 650000 0  250000 650000 0  300000 650000 0  350000 650000 0  400000 650000 0  450000 650000 0  500000 650000 0  550000 650000 0  600000 650000 0  650000 650000 0  700000 650000 0  750000 650000 0  800000 650000 0  850000 650000 0  900000 650000 0  950000 650000 0  1000000 650000 0  0 700000 0  50000 700000 0  100000 700000 0  150000 700000 0  200000 700000 0  250000 700000 0  300000 700000 0  350000 700000 0  400000 700000 0  450000 700000 0  500000 700000 0  550000 700000 0  600000 700000 0  650000 700000 0  700000 700000 0  750000 700000 0  800000 700000 0  850000 700000 0  900000 700000 0  950000 700000 0  1000000 700000 0  0 750000 0  50000 750000 0  100000 750000 0  150000 750000 0  200000 750000 0  250000 750000 0  300000 750000 0  350000 750000 0  400000 750000 0  450000 750000 0  500000 750000 0  550000 750000 0  600000 750000 0  650000 750000 0  700000 750000 0  750000 750000 0  800000 750000 0  850000 750000 0  900000 750000 0  950000 750000 0  1000000 750000 0  0 800000 0  50000 800000 0  100000 800000 0  150000 800000 0  200000 800000 0  250000 800000 0  300000 800000 0  350000 800000 0  400000 800000 0  450000 800000 0  500000 800000 0  550000 800000 0  600000 800000 0  650000 800000 0  700000 800000 0  750000 800000 0  800000 800000 0  850000 800000 0  900000 800000 0  950000 800000 0  1000000 800000 0  0 850000 0  50000 850000 0  100000 850000 0  150000 850000 0  200000 850000 0  250000 850000 0  300000 850000 0  350000 850000 0  400000 850000 0  450000 850000 0  500000 850000 0  550000 850000 0  600000 850000 0  650000 850000 0  700000 850000 0  750000 850000 0  800000 850000 0  850000 850000 0  900000 850000 0  950000 850000 0  1000000 850000 0  0 900000 0  50000 900000 0  100000 900000 0  150000 900000 0  200000 900000 0  250000 900000 0  300000 900000 0  350000 900000 0  400000 900000 0  450000 900000 0  500000 900000 0  550000 900000 0  600000 900000 0  650000 900000 0  700000 900000 0  750000 900000 0  800000 900000 0  850000 900000 0  900000 900000 0  950000 900000 0  1000000 900000 0  0 950000 0  50000 950000 0  100000 950000 0  150000 950000 0  200000 950000 0  250000 950000 0  300000 950000 0  350000 950000 0  400000 950000 0  450000 950000 0  500000 950000 0  550000 950000 0  600000 950000 0  650000 950000 0  700000 950000 0  750000 950000 0  800000 950000 0  850000 950000 0  900000 950000 0  950000 950000 0  1000000 950000 0  0 1000000 0  50000 1000000 0  100000 1000000 0  150000 1000000 0  200000 1000000 0  250000 1000000 0  300000 1000000 0  350000 1000000 0  400000 1000000 0  450000 1000000 0  500000 1000000 0  550000 1000000 0  600000 1000000 0  650000 1000000 0  700000 1000000 0  750000 1000000 0  800000 1000000 0  850000 1000000 0  900000 1000000 0  950000 1000000 0  1000000 1000000 0  0 1050000 0  50000 1050000 0  100000 1050000 0  150000 1050000 0  200000 1050000 0  250000 1050000 0  300000 1050000 0  350000 1050000 0  400000 1050000 0  450000 1050000 0  500000 1050000 0  550000 1050000 0  600000 1050000 0  650000 1050000 0  700000 1050000 0  750000 1050000 0  800000 1050000 0  850000 1050000 0  900000 1050000 0  950000 1050000 0  1000000 1050000 0  0 1100000 0  50000 1100000 0  100000 1100000 0  150000 1100000 0  200000 1100000 0  250000 1100000 0  300000 1100000 0  350000 1100000 0  400000 1100000 0  450000 1100000 0  500000 1100000 0  550000 1100000 0  600000 1100000 0  650000 1100000 0  700000 1100000 0  750000 1100000 0  800000 1100000 0  850000 1100000 0  900000 1100000 0  950000 1100000 0  1000000 1100000 0  0 1150000 0  50000 1150000 0  100000 1150000 0  150000 1150000 0  200000 1150000 0  250000 1150000 0  300000 1150000 0  350000 1150000 0  400000 1150000 0  450000 1150000 0  500000 1150000 0  550000 1150000 0  600000 1150000 0  650000 1150000 0  700000 1150000 0  750000 1150000 0  800000 1150000 0  850000 1150000 0  900000 1150000 0  950000 1150000 0  1000000 1150000 0  0 1200000 0  50000 1200000 0  100000 1200000 0  150000 1200000 0  200000 1200000 0  250000 1200000 0  300000 1200000 0  350000 1200000 0  400000 1200000 0  450000 1200000 0  500000 1200000 0  550000 1200000 0  600000 1200000 0  650000 1200000 0  700000 1200000 0  750000 1200000 0  800000 1200000 0  850000 1200000 0  900000 1200000 0  950000 1200000 0  1000000 1200000 0  0 1250000 0  50000 1250000 0  100000 1250000 0  150000 1250000 0  200000 1250000 0  250000 1250000 0  300000 1250000 0  350000 1250000 0  400000 1250000 0  450000 1250000 0  500000 1250000 0  550000 1250000 0  600000 1250000 0  650000 1250000 0  700000 1250000 0  750000 1250000 0  800000 1250000 0  850000 1250000 0  900000 1250000 0  950000 1250000 0  1000000 1250000 0  0 1300000 0  50000 1300000 0  100000 1300000 0  150000 1300000 0  200000 1300000 0  250000 1300000 0  300000 1300000 0  350000 1300000 0  400000 1300000 0  450000 1300000 0  500000 1300000 0  550000 1300000 0  600000 1300000 0  650000 1300000 0  700000 1300000 0  750000 1300000 0  800000 1300000 0  850000 1300000 0  900000 1300000 0  950000 1300000 0  1000000 1300000 0  0 1350000 0  50000 1350000 0  100000 1350000 0  150000 1350000 0  200000 1350000 0  250000 1350000 0  300000 1350000 0  350000 1350000 0  400000 1350000 0  450000 1350000 0  500000 1350000 0  550000 1350000 0  600000 1350000 0  650000 1350000 0  700000 135
[...]
<PointData  Vectors="f_15"> 
<DataArray  type="Float64"  Name="f_15"  NumberOfComponents="3" format="ascii">-3.1508670624631887e-10 3.2174180215291577e-10 0.0000000000000000e+00  -5.8737714943646606e-10 2.6775948199888404e-10 0.0000000000000000e+00  -1.0721281649970537e-09 2.4352065608593948e-10 0.0000000000000000e+00  -1.5407485802355254e-09 2.2216786204874354e-10 0.0000000000000000e+00  -1.9698509476317774e-09 1.9790343610129850e-10 0.0000000000000000e+00  -2.3468736456149097e-09 1.7002872959244921e-10 0.0000000000000000e+00  -2.6616193997153684e-09 1.3877325803337065e-10 0.0000000000000000e+00  -2.9058460693238935e-09 1.0469688506281964e-10 0.0000000000000000e+00  -3.0732525581003162e-09 6.8538138570324205e-11 0.0000000000000000e+00  -3.1595870459515532e-09 3.1139547241621537e-11 0.0000000000000000e+00  -3.1627371068146167e-09 -6.5994165351327793e-12 0.0000000000000000e+00  -3.0827731872355413e-09 -4.3758180011552872e-11 0.0000000000000000e+00  -2.9219400251905923e-09 -7.9426452775751212e-11 0.0000000000000000e+00  -2.6845959315509850e-09 -1.1273457367984173e-10 0.0000000000000000e+00  -2.3771106340465208e-09 -1.4288707878423907e-10 0.0000000000000000e+00  -2.0077877837106365e-09 -1.6921344604983134e-10 0.0000000000000000e+00  -1.5871591799129283e-09 -1.9128762556745995e-10 0.0000000000000000e+00  -1.1302431500841551e-09 -2.0925984973622153e-10 0.0000000000000000e+00  -6.6724768598673028e-10 -2.2352998436828844e-10 0.0000000000000000e+00  -2.8907991385793751e-10 -2.1620422303990312e-10 0.0000000000000000e+00  -1.2970846267807450e-10 -1.3284901981595528e-10 0.0000000000000000e+00  -2.6827691590485529e-10 5.7322781788484045e-10 0.0000000000000000e+00  -4.9775283139711876e-10 4.9573458445656380e-10 0.0000000000000000e+00  -8.8756958750666143e-10 5.0255105856429420e-10 0.0000000000000000e+00  -1.3089737692931424e-09 4.7900911111920303e-10 0.0000000000000000e+00  -1.7104162373633399e-09 4.3655734094625722e-10 0.0000000000000000e+00  -2.0725702560570401e-09 3.8044032290304305e-10 0.0000000000000000e+00  -2.3831399720515347e-09 3.1351643110609748e-10 0.0000000000000000e+00  -2.6328465483984094e-09 2.3809389118864661e-10 0.0000000000000000e+00  -2.8146539029661394e-09 1.5640820765795012e-10 0.0000000000000000e+00  -2.9236054553245862e-09 7.0732535506695656e-11 0.0000000000000000e+00  -2.9568211788168021e-09 -1.6613905818596662e-11 0.0000000000000000e+00  -2.9135140043563101e-09 -1.0329325304360083e-10 0.0000000000000000e+00  -2.7949879227728756e-09 -1.8698847639816038e-10 0.0000000000000000e+00  -2.6046105419324247e-09 -2.6544280638263643e-10 0.0000000000000000e+00  -2.3477707034071126e-09 -3.3648793769582137e-10 0.0000000000000000e+00  -2.0318704348804599e-09 -3.9804017946560765e-10 0.0000000000000000e+00  -1.6665349093489261e-09 -4.4799932256127670e-10 0.0000000000000000e+00  -1.2647631436675321e-09 -4.8373759476942099e-10 0.0000000000000000e+00  -8.4803633887611325e-10 -4.9927101408120598e-10 0.0000000000000000e+00  -4.6828280565535012e-10 -4.7131323428670462e-10 0.0000000000000000e+00  -2.2062255725420843e-10 -2.8076414424131587e-10 0.0000000000000000e+00  -2.6502285275314159e-10 1.0186833190523829e-09 0.0000000000000000e+00  -5.0869822543501445e-10 8.7050385088663063e-10 0.0000000000000000e+00  -8.8272332792392491e-10 8.6719162605327490e-10 0.0000000000000000e+00  -1.2739047643749041e-09 8.2971914490251875e-10 0.0000000000000000e+00  -1.6453790226274676e-09 7.6030086150065324e-10 0.0000000000000000e+00  -1.9810862361275714e-09 6.6557713714537041e-10 0.0000000000000000e+00  -2.2695697839179847e-09 5.5074636042811219e-10 0.0000000000000000e+00  -2.5019066643049351e-09 4.2017651160246573e-10 0.0000000000000000e+00  -2.6712688335976049e-09 2.7801353065899863e-10 0.0000000000000000e+00  -2.7728463581906862e-09 1.2839810042531593e-10 0.0000000000000000e+00  -2.8038405713802571e-09 -2.4488043775921822e-11 0.0000000000000000e+00  -2.7634690530124841e-09 -1.7644602085267659e-10 0.0000000000000000e+00  -2.6529602253247391e-09 -3.2330998117096221e-10 0.0000000000000000e+00  -2.4755313357030029e-09 -4.6099723245560939e-10 0.0000000000000000e+00  -2.2363585978499536e-09 -5.8553206470759749e-10 0.0000000000000000e+00  -1.9425772471322803e-09 -6.9299776441661563e-10 0.0000000000000000e+00  -1.6034420937442566e-09 -7.7931016697789408e-10 0.0000000000000000e+00  -1.2311346453487637e-09 -8.3953572191965029e-10 0.0000000000000000e+00  -8.4405070330326483e-10 -8.6599437244347111e-10 0.0000000000000000e+00  -4.8268833086253206e-10 -8.4522377570981192e-10 0.0000000000000000e+00  -2.3535228496803527e-10 -6.2765440868369715e-10 0.0000000000000000e+00  -2.7607174449801772e-10 1.4570338384952423e-09 0.0000000000000000e+00  -5.0490403560351384e-10 1.2915039023026623e-09 0.0000000000000000e+00  -8.7164395236165661e-10 1.2614834250443885e-09 0.0000000000000000e+00  -1.2522745484318052e-09 1.1998449276087475e-09 0.0000000000000000e+00  -1.6096227484583294e-09 1.0991552260660781e-09 0.0000000000000000e+00  -1.9302870227049434e-09 9.6370036413946722e-10 0.0000000000000000e+00  -2.2048951580686851e-09 7.9933155026906019e-10 0.0000000000000000e+00  -2.4256063174138153e-09 6.1195363905744933e-10 0.0000000000000000e+00  -2.5861676908342259e-09 4.0749190611908243e-10 0.0000000000000000e+00  -2.6820892821661832e-09 1.9195570452756466e-10 0.0000000000000000e+00  -2.7107448836602257e-09 -2.8562883325553538e-11 0.0000000000000000e+00  -2.6714174262450010e-09 -2.4794033577527500e-10 0.0000000000000000e+00  -2.5653058021597574e-09 -4.6009574712667335e-10 0.0000000000000000e+00  -2.3955006579622744e-09 -6.5906425785692377e-10 0.0000000000000000e+00  -2.1669336002337083e-09 -8.3904581502550661e-10 0.0000000000000000e+00  -1.8863128217154461e-09 -9.9439875276812767e-10 0.0000000000000000e+00  -1.5621121171872778e-09 -1.1195433660749593e-09 0.0000000000000000e+00  -1.2049681496305764e-09 -1.2087847563773416e-09 0.0000000000000000e+00  -8.3028741441224599e-10 -1.2561418392853843e-09 0.0000000000000000e+00  -4.7554201689210025e-10 -1.2549022897405363e-09 0.0000000000000000e+00  -2.3847562626336829e-10 -1.0495506049780345e-09 0.0000000000000000e+00  -2.9465891148474882e-10 1.8860166150921210e-09 0.0000000000000000e+00  -5.0469688318056827e-10 1.7125924441309612e-09 0.0000000000000000e+00  -8.6560744426640377e-10 1.6595546470946647e-09 0.0000000000000000e+00  -1.2422811014174059e-09 1.5699492411164400e-09 0.0000000000000000e+00  -1.5945752789336756e-09 1.4351775869690746e-09 0.0000000000000000e+00  -1.9089202419173231e-09 1.2580098194300778e-09 0.0000000000000000e+00  -2.1768436997644389e-09 1.0442873215972651e-09 0.0000000000000000e+00  -2.3914052585925506e-09 8.0091202356107042e-10 0.0000000000000000e+00  -2.5469664542608620e-09 5.3529009299943135e-10 0.0000000000000000e+00  -2.6394168759098906e-09 2.5513609305178150e-10 0.0000000000000000e+00  -2.6663464070601516e-09 -3.1648526501101883e-11 0.0000000000000000e+00  -2.6271315831970516e-09 -3.1709175916947884e-10 0.0000000000000000e+00  -2.5229585695453929e-09 -5.9327138138721467e-10 0.0000000000000000e+00  -2.3567954851308980e-09 -8.5243341772673144e-10 0.0000000000000000e+00  -2.1333165008235079e-09 -1.0871009371551215e-09 0.0000000000000000e+00  -1.8587828713548019e-09 -1.2901730092542775e-09 0.0000000000000000e+00  -1.5409520913134017e-09 -1.4550449453826250e-09 0.0000000000000000e+00  -1.1894753555044216e-09 -1.5758630826345792e-09 0.0000000000000000e+00  -8.1911814077223643e-10 -1.6478966378016126e-09 0.0000000000000000e+00  -4.6971263927660077e-10 -1.6663778429541758e-09 0.0000000000000000e+00  -2.4919377031243851e-10 -1.4756217196677854e-09 0.0000000000000000e+00  -3.1948975709027604e-10 2.3109958099061400e-09 0.0000000000000000e+00  -5.1044311205297971e-10 2.1307706895793117e-09 0.0000000000000000e+00  -8.6783367959043377e-10 2.0584567360556421e-09 0.0000000000000000e+00  -1.2445161052649423e-09 1.9405306582115199e-09 0.0000000000000000e+00  -1.5969993807471535e-09 1.7701810179673904e-09 0.0000000000000000e+00  -1.9106897387609813e-09 1.5501953255235824e-09 0.0000000000000000e+00  -2.1771318522937318e-09 1.2867120681401598e-09 0.0000000000000000e+00  -2.3897792064089269e-09 9.8750250722191574e-10 0.0000000000000000e+00  -2.5434059330775712e-09 6.6127058156527101e-10 0.0000000000000000e+00  -2.6342170314357658e-09 3.1728579115375825e-10 0.0000000000000000e+00  -2.6600053359174920e-09 -3.4858588907400119e-11 0.0000000000000000e+00  -2.6202462220361663e-09 -3.8544218954145372e-10 0.0000000000000000e+00  -2.5161271246664717e-09 -7.2479914051906629e-10 0.0000000000000000e+00  -2.3505192187623923e-09 -1.0434962524558399e-09 0.0000000000000000e+00  -2.1278941557126047e-09 -1.3325166219303987e-09 0.0000000000000000e+00  -1.8542007926336648e-09 -1.5834672606763921e-09 0.0000000000000000e+00  -1.5368163830742253e-09 -1.7888551877136805e-09 0.0000000000000000e+00  -1.1851755186592032e-09 -1.9425025537245481e-09 0.0000000000000000e+00  -8.1477440822035252e-10 -2.0398423288725509e-09 0.0000000000000000e+00  -4.6911854867014378e-10 -2.0760473227378410e-09 0.0000000000000000e+00  -2.6658285615159219e-10 -1.8954300929046920e-09 0.0000000000000000e+00  -3.5012190390840359e-10 2.7368278599044333e-09 0.0000000000000000e+00  -5.2186678327589745e-10 2.5497271767448601e-09 0.0000000000000000e+00  -8.7813524731372420e-10 2.4598985945278128e-09 0.0000000000000000e+00  -1.2577777579594126e-09 2.3142201909669085e-09 0.0000000000000000e+00  -1.6137725837357456e-09 2.1075859882659973e-09 0.0000000000000000e+00  -1.9303477044821312e-09 1.8437462724312196e-09 0.0000000000000000e+00  -2.1986909858540889e-09 1.5296307939201130e-09 0.0000000000000000e+00  -2.4122955219804130e-09 1.1740157524377165e-09 0.0000000000000000e+00  -2.5661259832116954e-09 7.8688035268632568e-10 0.0000000000000000e+00  -2.6565913157360385e-09 3.7897498477969871e-10 0.0000000000000000e+00  -2.6816412654783466e-09 -3.8500559362822454e-11 0.0000000000000000e+00  -2.6408391456567334e-09 -4.5416295692619355e-10 0.0000000000000000e+00  -2.5353862001380845e-09 -8.5668671714022831e-10 0.0000000000000000e+00  -2.3680966109726677e-09 -1.2350416074826440e-09 0.0000000000000000e+00  -2.1433270788229477e-09 -1.5787442006712574e-09 0.0000000000000000e+00  -1.8668889449925178e-09 -1.8781458315273534e-09 0.0000000000000000e+00  -1.5460959284833208e-09 -2.1247862092856286e-09 0.0000000000000000e+00  -1.1906472838128705e-09 -2.3118227612117624e-09 0.0000000000000000e+00  -8.1728519636300792e-10 -2.4341625257154287e-09 0.0000000000000000e+00  -4.7357883305478120e-10 -2.4862916433556583e-09 0.0000000000000000e+00  -2.8976341346108967e-10 -2.3113963269565024e-09 0.0000000000000000e+00  -3.8638645930056714e-10 3.1671606057641848e-09 0.0000000000000000e+00  -5.3791957223171425e-10 2.9729524195609633e-09 0.0000000000000000e+00  -8.9474924047799269e-10 2.8664276315194245e-09 0.0000000000000000e+00  -1.2793640877976170e-09 2.6933325421025620e-09 0.0000000000000000e+00  -1.6408730399181007e-09 2.4499276215240292e-09 0.0000000000000000e+00  -1.9623223462577078e-09 2.1412514105749733e-09 0.0000000000000000e+00  -2.2344492675255410e-09 1.7753899896626546e-09 0.0000000000000000e+00  -2.4506287107490047e-09 1.3623319104205180e-09 0.0000000000000000e+00  -2.6058789578031278e-09 9.1340292296317421e-10 0.0000000000000000e+00  -2.6967266003387729e-09 4.4082755508490780e-10 0.0000000000000000e+00  -2.7212348281808854e-09 -4.2632800470264463e-11 0.0000000000000000e+00  -2.6790402935665060e-09 -5.2399170392919796e-10 0.0000000000000000e+00  -2.5713654877814850e-09 -9.9032386892389678e-10 0.0000000000000000e+00  -2.4010008450858835e-09 -1.4290485286459229e-09 0.0000000000000000e+00  -2.1722606992281970e-09 -1.8282310547533497e-09 0.0000000000000000e+00  -1.8909485426683205e-09 -2.1769218424641465e-09 0.0000000000000000e+00  -1.5645070756248803e-09 -2.4655442484031438e-09 0.0000000000000000e+00  -1.2031198368680768e-09 -2.6863070091869982e-09 0.0000000000000000e+00  -8.2495292053725392e-10 -2.8332426908830738e-09 0.0000000000000000e+00  -4.8199556637929729e-10 -2.8999949918273910e-09 0.0000000000000000e+00  -3.1839280002944167e-10 -2.7275545592082965e-09 0.0000000000000000e+00  -4.2826489087299923e-10 3.6041159095501460e-09 0.0000000000000000e+00  -5.5721763093326886e-10 3.4027985205386008e-09 0.0000000000000000e+00  -9.1509444702641718e-10 3.2798612794592962e-09 0.0000000000000000e+00  -1.3055177820519196e-09 3.0793018385709452e-09 0.0000000000000000e+00  -1.6732681172077419e-09 2.7985463783103744e-09 0.0000000000000000e+00  -2.0002141041546938e-09 2.4440201245070815e-09 0.0000000000000000e+00  -2.2766689999932401e-09 2.0251884606322876e-09 0.0000000000000000e+00  -2.4958724224032190e-09 1.5534347117419602e-09 0.0000000000000000e+00  -2.6528621691957863e-09 1.0415301921367480e-09 0.0000000000000000e+00  -2.7442551197903597e-09 5.0320021240647104e-10 0.0000000000000000e+00  -2.7682121210591235e-09 -4.7252917596602500e-11 0.0000000000000000e+00  -2.7244353634710051e-09 -5.9528291989927072e-10 0.0000000000000000e+00  -2.6141668914985455e-09 -1.1264083446286143e-09 0.0000000000000000e+00  -2.4401817679829668e-09 -1.6265210866553791e-09 0.0000000000000000e+00  -2.2067789117701020e-09 -2.0822174882635953e-09 0.0000000000000000e+00  -1.9198060446971744e-09 -2.4811683219909836e-09 0.0000000000000000e+00  -1.5869058321330435e-09 -2.8125293276205539e-09 0.0000000000000000e+00  -1.2188133746896808e-09 -3.0673552631291076e-09 0.0000000000000000e+00  -8.3519923498006409e-10 -3.2386273023442162e-09 0.0000000000000000e+00  -4.9291483066426596e-10 -3.3191284490962132e-09 0.0000000000000000e+00  -3.5235066693049070e-10 -3.1469786467457393e-09 0.0000000000000000e+00  -4.7583163312976505e-10 4.0480831359183983e-09 0.0000000000000000e+00  -5.7812886651350597e-10 3.8401405014008528e-09 0.0000000000000000e+00  -9.3598953263136965e-10 3.7007181530218296e-09 0.0000000000000000e+00  -1.3315780698438742e-09 3.4723223938539684e-09 0.0000000000000000e+00  -1.7048430280211879e-09 3.1534658698782877e-09 0.0000000000000000e+00  -2.0364707963901523e-09 2.7520270594555772e-09 0.0000000000000000e+00  -2.3164380558338428e-09 2.2789999459336708e-09 0.0000000000000000e+00  -2.5379288641221115e-09 1.7473070471926174e-09 0.0000000000000000e+00  -2.6960596224505555e-09 1.1712554442518592e-09 0.0000000000000000e+00  -2.7875791064087436e-09 5.6609821283539970e-10 0.0000000000000000e+00  -2.8107700652202852e-09 -5.2343883781070369e-11 0.0000000000000000e+00  -2.7654048535849643e-09 -6.6801304094259945e-10 0.0000000000000000e+00  -2.6527303273072200e-09 -1.2649192680694211e-09 0.0000000000000000e+00  -2.4754773383294839e-09 -1.8274485880861639e-09 0.0000000000000000e+00  -2.2378953445481205e-09 -2.3407026161821356e-09 0.0000000000000000e+00  -1.9458447636963328e-09 -2.7908876797052405e-09 0.0000000000000000e+00  -1.6071410108917607e-09 -3.1657527530571038e-09 0.0000000000000000e+00  -1.2330515614463966e-09 -3.4550376915496926e-09 0.0000000000000000e+00  -8.4480692967329755e-10 -3.6505567966885744e-09 0.0000000000000000e+00  -5.0462097381392533e-10 -3.7442376475503658e-09 0.0000000000000000e+00  -3.9162454714875490e-10 -3.5711833065352057e-09 0.0000000000000000e+00  -5.2922337423592024e-10 4.4974694034559999e-09 0.0000000000000000e+00  -5.9874458659751644e-10 4.2840787772091128e-09 0.0000000000000000e+00  -9.5363756880548932e-10 4.1278566759906249e-09 0.0000000000000000e+00  -1.3519261296053671e-09 3.8710130247945854e-09 0.0000000000000000e+00  -1.7282279186492914e-09 3.5131752704751051e-09 0.0000000000000000e+00  -2.0620529285109706e-09 3.0637746606110409e-09 0.0000000000000000e+00  -2.3431811521338258e-09 2.5354693847667650e-09 0.0000000000000000e+00  -2.5649031248800599e-09 1.9428423042604614e-09 0.0000000000000000e+00  -2.7225609559488899e-09 1.3018036971862059e-09 0.0000000000000000e+00  -2.8131500011548955e-09 6.2913597070919312e-10 0.0000000000000000e+00  -2.8351453931751357e-09 -5.7874924795099041e-11 0.0000000000000000e+00  -2.7884088304028538e-09 -7.4174204962314044e-10 0.0000000000000000e+00  -2.6741596710803977e-09 -1.4050462993798859e-09 0.0000000000000000e+00  -2.4950085668648065e-09 -2.0307131263503034e-09 0.0000000000000000e+00  -2.2550500493612933e-09 -2.6023371226068977e-09 0.0000000000000000e+00  -1.9600391691176142e-09 -3.1045810803781472e-09 0.0000000000000000e+00  -1.6178505433299949e-09 -3.5236525719016766e-09 0.0000000000000000e+00  -1.2402016183179997e-09 -3.8478219169317074e-09 0.0000000000000000e+00  -8.4992314259833894e-10 -4.0676206337371679e-09 0.0000000000000000e+00  -5.1511413583089725e-10 -4.1741105630113702e-09 0.0000000000000000e+00  -4.3626673726829531e-10 -3.9998714586009121e-09 0.0000000000000000e+00  -5.8862198381825621e-10 4.9483672739488378e-09 0.0000000000000000e+00  -6.1680807290832035e-10 4.7316052383644942e-09 0.0000000000000000e+00  -9.6350594872864291e-10 4.5581056527010201e-09 0.0000000000000000e+00  -1.3598021430857737e-09 4.2720450177248009e-09 0.0000000000000000e+00  -1.7345164695167995e-09 3.8743032835424224e-09 0.0000000000000000e+00  -2.0660244043543880e-09 3.3760274000888743e-09 0.0000000000000000e+00  -2.3441167694793418e-09 2.7916998323493200e-09 0.0000000000000000e+00  -2.5624436600025794e-09 2.1376796160511915e-09 0.0000000000000000e+00  -2.7168161380985276e-09 1.4315194171957408e-09 0.0000000000000000e+00  -2.8046725875297622e-09 6.9148492922239203e-10 0.0000000000000000e+00  -2.8248036979514177e-09 -6.3788273333804069e-11 0.0000000000000000e+00  -2.7771951729004254e-09 -8.1553565680247323e-10 0.0000000000000000e+00  -2.6629829645622669e-09 -1.5450543407998068e-09 0.0000000000000000e+00  -2.4845226202387232e-09 -2.2339073216814587e-09 0.0000000000000000e+00  -2.2455630809108126e-09 -2.8642026751189586e-09 0.0000000000000000e+00  -1.9515385519648269e-09 -3.4189910958092631e-09 0.0000000000000000e+00  -1.6101780023294441e-09 -3.8827942748027887e-09 0.0000000000000000e+00  -1.2335010195879999e-09 -4.2422314237820102e-09 0.0000000000000000e+00  -8.4595426150042344e-10 -4.4863954708278990e-09 0.0000000000000000e+00  -5.2204298696750549e-10 -4.6054390284665240e-09 0.0000000000000000e+00  -4.8637271322840375e-10 -4.4306738284361107e-09 0.0000000000000000e+00  -6.5424674287627857e-10 5.3941226227003229e-09 0.0000000000000000e+00  -6.2962191602120657e-10 5.1771937706954215e-09 0.0000000000000000e+00  -9.6014982949930541e-10 4.9858278313235436e-09 0.0000000000000000e+00  -1.3470365337101174e-09 4.6696922716761920e-09 0.0000000000000000e+00  -1.7128866114463144e-09 4.2311833161462418e-09 0.0000000000000000e+00  -2.0350451127675402e-09 3.6834179503054880e-09 0.0000000000000000e+00  -2.3036170883223648e-09 3.0429163874943607e-09 0.0000000000000000e+00  -2.5129823673290216e-09 2.3279392711641678e-09 0.0000000000000000e+00  -2.6597828334181767e-09 1.5576868384300997e-09 0.0000000000000000e+00  -2.7421955983533412e-09 7.5179009874148055e-10 0.0000000000000000e+00  -2.7595131316950703e-09 -6.9980556829639392e-11 0.0000000000000000e+00  -2.7118966178580534e-09 -8.8784647087184824e-10 0.0000000000000000e+00  -2.6003108142742016e-09 -1.6820741484459622e-09 0.0000000000000000e+00  -2.4266457216014395e-09 -2.4330496612980107e-09 0.0000000000000000e+00  -2.1940069448582782e-09 -3.1214691506524471e-09 0.0000000000000000e+00  -1.9071719072075617e-09 -3.7287163067310503e-09 0.0000000000000000e+00  -1.5734070174163214e-09 -4.2374558814663491e-09 0.0000000000000000e+00  -1.2048033293628118e-09 -4.6324151770770242e-09 0.0000000000000000e+00  -8.2739948487835951e-10 -4.9010178736520627e-09 0.0000000000000000e+00  -5.2261251855300186e-10 -5.0324139723612798e-09 0.0000000000000000e+00  -5.4206810894974700e-10 -4.8588079322964099e-09 0.0000000000000000e+00  -7.2635630839249366e-10 5.8247873914041567e-09 0.0000000000000000e+00  -6.3394052176270568e-10 5.6122901254066762e-09 0.0000000000000000e+00  -9.3699456636399690e-10 5.4023843908236573e-09 0.0000000000000000e+00  -1.3037112083355700e-09 5.0552729736021295e-09 0.0000000000000000e+00  -1.6501259712283746e-09 4.5752937195069998e-09 0.0000000000000000e+00  -1.95274910