<?xml version="1.0"?>
<VTKFile type="UnstructuredGrid"  version="0.1"  >
<UnstructuredGrid>
<Piece  NumberOfPoints="651" NumberOfCells="1200">
<Points>
<DataArray  type="Float64"  NumberOfComponents="3"  format="ascii">0 0 0  50000 0 0  100000 0 0  150000 0 0  200000 0 0  250000 0 0  300000 0 0  350000 0 0  400000 0 0  450000 0 0  500000 0 0  550000 0 0  600000 0 0  650000 0 0  700000 0 0  750000 0 0  800000 0 0  850000 0 0  900000 0 0  950000 0 0  1000000 0 0  0 50000 0  50000 50000 0  100000 50000 0  150000 50000 0  200000 50000 0  250000 50000 0  300000 50000 0  350000 50000 0  400000 50000 0  450000 50000 0  500000 50000 0  550000 50000 0  600000 50000 0  650000 50000 0  700000 50000 0  750000 50000 0  800000 50000 0  850000 50000 0  900000 50000 0  950000 50000 0  1000000 50000 0  0 100000 0  50000 100000 0  100000 100000 0  150000 100000 0  200000 100000 0  250000 100000 0  300000 100000 0  350000 100000 0  400000 100000 0  450000 100000 0  500000 100000 0  550000 100000 0  600000 100000 0  650000 100000 0  700000 100000 0  750000 100000 0  800000 100000 0  850000 100000 0  900000 100000 0  950000 100000 0  1000000 100000 0  0 150000 0  50000 150000 0  100000 150000 0  150000 150000 0  200000 150000 0  250000 150000 0  300000 150000 0  350000 150000 0  400000 150000 0  450000 150000 0  500000 150000 0  550000 150000 0  600000 150000 0  650000 150000 0  700000 150000 0  750000 150000 0  800000 150000 0  850000 150000 0  900000 150000 0  950000 150000 0  1000000 150000 0  0 200000 0  50000 200000 0  100000 200000 0  150000 200000 0  200000 200000 0  250000 200000 0  300000 200000 0  350000 200000 0  400000 200000 0  450000 200000 0  500000 200000 0  550000 200000 0  600000 200000 0  650000 200000 0  700000 200000 0  750000 200000 0  800000 200000 0  850000 200000 0  900000 200000 0  950000 200000 0  1000000 200000 0  0 250000 0  50000 250000 0  100000 250000 0  150000 250000 0  200000 250000 0  250000 250000 0  300000 250000 0  350000 250000 0  400000 250000 0  450000 250000 0  500000 250000 0  550000 250000 0  600000 250000 0  650000 250000 0  700000 250000 0  750000 250000 0  800000 250000 0  850000 250000 0  900000 250000 0  950000 250000 0  1000000 250000 0  0 300000 0  50000 300000 0  100000 300000 0  150000 300000 0  200000 300000 0  250000 300000 0  300000 300000 0  350000 300000 0  400000 300000 0  450000 300000 0  500000 300000 0  550000 300000 0  600000 300000 0  650000 300000 0  700000 300000 0  750000 300000 0  800000 300000 0  850000 300000 0  900000 300000 0  950000 300000 0  1000000 300000 0  0 350000 0  50000 350000 0  100000 350000 0  150000 350000 0  200000 350000 0  250000 350000 0  300000 350000 0  350000 350000 0  400000 350000 0  450000 350000 0  500000 350000 0  550000 350000 0  600000 350000 0  650000 350000 0  700000 350000 0  750000 350000 0  800000 350000 0  850000 350000 0  900000 350000 0  950000 350000 0  1000000 350000 0  0 400000 0  50000 400000 0  100000 400000 0  150000 400000 0  200000 400000 0  250000 400000 0  300000 400000 0  350000 400000 0  400000 400000 0  450000 400000 0  500000 400000 0  550000 400000 0  600000 400000 0  650000 400000 0  700000 400000 0  750000 400000 0  800000 400000 0  850000 400000 0  900000 400000 0  950000 400000 0  1000000 400000 0  0 450000 0  50000 450000 0  100000 450000 0  150000 450000 0  200000 450000 0  250000 450000 0  300000 450000 0  350000 450000 0  400000 450000 0  450000 450000 0  500000 450000 0  550000 450000 0  600000 450000 0  650000 450000 0  700000 450000 0  750000 450000 0  800000 450000 0  850000 450000 0  900000 450000 0  950000 450000 0  1000000 450000 0  0 500000 0  50000 500000 0  100000 500000 0  150000 500000 0  200000 500000 0  250000 500000 0  300000 500000 0  350000 500000 0  400000 500000 0  450000 500000 0  500000 500000 0  550000 500000 0  600000 500000 0  650000 500000 0  700000 500000 0  750000 500000 0  800000 500000 0  850000 500000 0  900000 500000 0  950000 500000 0  1000000 500000 0  0 550000 0  50000 550000 0  100000 550000 0  150000 550000 0  200000 550000 0  250000 550000 0  300000 550000 0  350000 550000 0  400000 550000 0  450000 550000 0  500000 550000 0  550000 550000 0  600000 550000 0  650000 550000 0  700000 550000 0  750000 550000 0  800000 550000 0  850000 550000 0  900000 550000 0  950000 550000 0  1000000 550000 0  0 600000 0  50000 600000 0  100000 600000 0  150000 600000 0  200000 600000 0  250000 600000 0  300000 600000 0  350000 600000 0  400000 600000 0  450000 600000 0  500000 600000 0  550000 600000 0  600000 600000 0  650000 600000 0  700000 600000 0  750000 600000 0  800000 600000 0  850000 600000 0  900000 600000 0  950000 600000 0  1000000 600000 0  0 650000 0  50000 650000 0  100000 650000 0  150000 650000 0  200000 650000 0  250000 650000 0  300000 650000 0  350000 650000 0  400000 650000 0  450000 650000 0  500000 650000 0  550000 650000 0  600000 650000 0  650000 650000 0  700000 650000 0  750000 650000 0  800000 650000 0  850000 650000 0  900000 650000 0  950000 650000 0  1000000 650000 0  0 700000 0  50000 700000 0  100000 700000 0  150000 700000 0  200000 700000 0  250000 700000 0  300000 700000 0  350000 700000 0  400000 700000 0  450000 700000 0  500000 700000 0  550000 700000 0  600000 700000 0  650000 700000 0  700000 700000 0  750000 700000 0  800000 700000 0  850000 700000 0  900000 700000 0  950000 700000 0  1000000 700000 0  0 750000 0  50000 750000 0  100000 750000 0  150000 750000 0  200000 750000 0  250000 750000 0  300000 750000 0  350000 750000 0  400000 750000 0  450000 750000 0  500000 750000 0  550000 750000 0  600000 750000 0  650000 750000 0  700000 750000 0  750000 750000 0  800000 750000 0  850000 750000 0  900000 750000 0  950000 750000 0  1000000 750000 0  0 800000 0  50000 800000 0  100000 800000 0  150000 800000 0  200000 800000 0  250000 800000 0  300000 800000 0  350000 800000 0  400000 800000 0  450000 800000 0  500000 800000 0  550000 800000 0  600000 800000 0  650000 800000 0  700000 800000 0  750000 800000 0  800000 800000 0  850000 800000 0  900000 800000 0  950000 800000 0  1000000 800000 0  0 850000 0  50000 850000 0  100000 850000 0  150000 850000 0  200000 850000 0  250000 850000 0  300000 850000 0  350000 850000 0  400000 850000 0  450000 850000 0  500000 850000 0  550000 850000 0  600000 850000 0  650000 850000 0  700000 850000 0  750000 850000 0  800000 850000 0  850000 850000 0  900000 850000 0  950000 850000 0  1000000 850000 0  0 900000 0  50000 900000 0  100000 900000 0  150000 900000 0  200000 900000 0  250000 900000 0  300000 900000 0  350000 900000 0  400000 900000 0  450000 900000 0  500000 900000 0  550000 900000 0  600000 900000 0  650000 900000 0  700000 900000 0  750000 900000 0  800000 900000 0  850000 900000 0  900000 900000 0  950000 900000 0  1000000 900000 0  0 950000 0  50000 950000 0  100000 950000 0  150000 950000 0  200000 950000 0  250000 950000 0  300000 950000 0  350000 950000 0  400000 950000 0  450000 950000 0  500000 950000 0  550000 950000 0  600000 950000 0  650000 950000 0  700000 950000 0  750000 950000 0  800000 950000 0  850000 950000 0  900000 950000 0  950000 950000 0  1000000 950000 0  0 1000000 0  50000 1000000 0  100000 1000000 0  150000 1000000 0  200000 1000000 0  250000 1000000 0  300000 1000000 0  350000 1000000 0  400000 1000000 0  450000 1000000 0  500000 1000000 0  550000 1000000 0  600000 1000000 0  650000 1000000 0  700000 1000000 0  750000 1000000 0  800000 1000000 0  850000 1000000 0  900000 1000000 0  950000 1000000 0  1000000 1000000 0  0 1050000 0  50000 1050000 0  100000 1050000 0  150000 1050000 0  200000 1050000 0  250000 1050000 0  300000 1050000 0  350000 1050000 0  400000 1050000 0  450000 1050000 0  500000 1050000 0  550000 1050000 0  600000 1050000 0  650000 1050000 0  700000 1050000 0  750000 1050000 0  800000 1050000 0  850000 1050000 0  900000 1050000 0  950000 1050000 0  1000000 1050000 0  0 1100000 0  50000 1100000 0  100000 1100000 0  150000 1100000 0  200000 1100000 0  250000 1100000 0  300000 1100000 0  350000 1100000 0  400000 1100000 0  450000 1100000 0  500000 1100000 0  550000 1100000 0  600000 1100000 0  650000 1100000 0  700000 1100000 0  750000 1100000 0  800000 1100000 0  850000 1100000 0  900000 1100000 0  950000 1100000 0  1000000 1100000 0  0 1150000 0  50000 1150000 0  100000 1150000 0  150000 1150000 0  200000 1150000 0  250000 1150000 0  300000 1150000 0  350000 1150000 0  400000 1150000 0  450000 1150000 0  500000 1150000 0  550000 1150000 0  600000 1150000 0  650000 1150000 0  700000 1150000 0  750000 1150000 0  800000 1150000 0  850000 1150000 0  900000 1150000 0  950000 1150000 0  1000000 1150000 0  0 1200000 0  50000 1200000 0  100000 1200000 0  150000 1200000 0  200000 1200000 0  250000 1200000 0  300000 1200000 0  350000 1200000 0  400000 1200000 0  450000 1200000 0  500000 1200000 0  550000 1200000 0  600000 1200000 0  650000 1200000 0  700000 1200000 0  750000 1200000 0  800000 1200000 0  850000 1200000 0  900000 1200000 0  950000 1200000 0  1000000 1200000 0  0 1250000 0  50000 1250000 0  100000 1250000 0  150000 1250000 0  200000 1250000 0  250000 1250000 0  300000 1250000 0  350000 1250000 0  400000 1250000 0  450000 1250000 0  500000 1250000 0  550000 1250000 0  600000 1250000 0  650000 1250000 0  700000 1250000 0  750000 1250000 0  800000 1250000 0  850000 1250000 0  900000 1250000 0  950000 1250000 0  1000000 1250000 0  0 1300000 0  50000 1300000 0  100000 1300000 0  150000 1300000 0  200000 1300000 0  250000 1300000 0  300000 1300000 0  350000 1300000 0  400000 1300000 0  450000 1300000 0  500000 1300000 0  550000 1300000 0  600000 1300000 0  650000 1300000 0  700000 1300000 0  750000 1300000 0  800000 1300000 0  850000 1300000 0  900000 1300000 0  950000 1300000 0  1000000 1300000 0  0 1350000 0  50000 1350000 0  100000 1350000 0  150000 1350000 0  200000 1350000 0  250000 1350000 0  300000 1350000 0  350000 1350000 0  400000 1350000 0  450000 1350000 0  500000 1350000 0  550000 1350000 0  600000 1350000 0  650000 1350000 0  700000 135
[...]
<PointData  Vectors="f_15"> 
<DataArray  type="Float64"  Name="f_15"  NumberOfComponents="3" format="ascii">-3.2992580733449910e-10 2.6294969325513218e-10 0.0000000000000000e+00  -6.0295317930211441e-10 2.0941151718678371e-10 0.0000000000000000e+00  -1.0889780878956940e-09 1.8619486225341814e-10 0.0000000000000000e+00  -1.5588278594875964e-09 1.6621944719938107e-10 0.0000000000000000e+00  -1.9890821195411156e-09 1.4353038715194550e-10 0.0000000000000000e+00  -2.3672005563059180e-09 1.1735418977130476e-10 0.0000000000000000e+00  -2.6829952351399725e-09 8.7885317700595093e-11 0.0000000000000000e+00  -2.9282305938727991e-09 5.5660902238129248e-11 0.0000000000000000e+00  -3.0966125264234088e-09 2.1401679922656776e-11 0.0000000000000000e+00  -3.1838969896844370e-09 -1.4064011473484423e-11 0.0000000000000000e+00  -3.1879801964702099e-09 -4.9847970878511026e-11 0.0000000000000000e+00  -3.1089419855327795e-09 -8.5038721349467694e-11 0.0000000000000000e+00  -2.9490369944482878e-09 -1.1873386912153058e-10 0.0000000000000000e+00  -2.7126337859300233e-09 -1.5007193582390412e-10 0.0000000000000000e+00  -2.4061131214181275e-09 -1.7826826130110377e-10 0.0000000000000000e+00  -2.0377925135914462e-09 -2.0266930834867361e-10 0.0000000000000000e+00  -1.6182263325152793e-09 -2.2287752251080953e-10 0.0000000000000000e+00  -1.1624765190987784e-09 -2.3909166858331035e-10 0.0000000000000000e+00  -7.0081483322023831e-10 -2.5179028139146541e-10 0.0000000000000000e+00  -3.2410138905147585e-10 -2.4316950220323774e-10 0.0000000000000000e+00  -1.6522434134377943e-10 -1.6010539981524979e-10 0.0000000000000000e+00  -2.8251737354782484e-10 5.1487033510908894e-10 0.0000000000000000e+00  -4.9469462055645203e-10 4.7613122900555766e-10 0.0000000000000000e+00  -8.7315072494162706e-10 4.9572436567632668e-10 0.0000000000000000e+00  -1.2998577366047066e-09 4.7146116522136280e-10 0.0000000000000000e+00  -1.7074055254410314e-09 4.2841911255661202e-10 0.0000000000000000e+00  -2.0740395639637011e-09 3.7204191927339091e-10 0.0000000000000000e+00  -2.3880283823938188e-09 3.0507701675765756e-10 0.0000000000000000e+00  -2.6404638013527548e-09 2.2974712602216566e-10 0.0000000000000000e+00  -2.8244913546083746e-09 1.4822915603401469e-10 0.0000000000000000e+00  -2.9352630336960495e-09 6.2760537947401458e-11 0.0000000000000000e+00  -2.9699639172858823e-09 -2.4362751943430665e-11 0.0000000000000000e+00  -2.9278394848800925e-09 -1.1082173741918550e-10 0.0000000000000000e+00  -2.8101982828711434e-09 -1.9431997255896248e-10 0.0000000000000000e+00  -2.6203828892830816e-09 -2.7262938758359351e-10 0.0000000000000000e+00  -2.3637187261921337e-09 -3.4362854432777049e-10 0.0000000000000000e+00  -2.0474866469173395e-09 -4.0531901575308468e-10 0.0000000000000000e+00  -1.6811032890222631e-09 -4.5576797470872339e-10 0.0000000000000000e+00  -1.2773080400522174e-09 -4.9266633410481969e-10 0.0000000000000000e+00  -8.5774127120362984e-10 -5.1058813858297259e-10 0.0000000000000000e+00  -4.7586720054158500e-10 -4.8885675342670405e-10 0.0000000000000000e+00  -2.5566204768603162e-10 -3.0736067585217384e-10 0.0000000000000000e+00  -2.7829794053672703e-10 9.6107259644223153e-10 0.0000000000000000e+00  -5.0407498203635990e-10 8.5565816151673739e-10 0.0000000000000000e+00  -8.6230210124809628e-10 8.7384469214483751e-10 0.0000000000000000e+00  -1.2514342731288103e-09 8.3764324125789322e-10 0.0000000000000000e+00  -1.6262682144807701e-09 7.6697492506962442e-10 0.0000000000000000e+00  -1.9666421193348509e-09 6.7089087679982447e-10 0.0000000000000000e+00  -2.2595617607828383e-09 5.5493830760517282e-10 0.0000000000000000e+00  -2.4958134360925848e-09 4.2348774363425407e-10 0.0000000000000000e+00  -2.6685715320449431e-09 2.8061697641439135e-10 0.0000000000000000e+00  -2.7730693827794393e-09 1.3040006789825738e-10 0.0000000000000000e+00  -2.8065457122738352e-09 -2.3035493798355234e-11 0.0000000000000000e+00  -2.7682376654587479e-09 -1.7553896352428816e-10 0.0000000000000000e+00  -2.6593697380418316e-09 -3.2299597064214233e-10 0.0000000000000000e+00  -2.4831265980717134e-09 -4.6139027827739069e-10 0.0000000000000000e+00  -2.2446166058860917e-09 -5.8684446677339629e-10 0.0000000000000000e+00  -1.9508663159694078e-09 -6.9559905621288540e-10 0.0000000000000000e+00  -1.6109944340306498e-09 -7.8382569797987217e-10 0.0000000000000000e+00  -1.2371144392702485e-09 -8.4698031716028036e-10 0.0000000000000000e+00  -8.4804100339564394e-10 -8.7792057034558558e-10 0.0000000000000000e+00  -4.8697551119736913e-10 -8.6245956763598335e-10 0.0000000000000000e+00  -2.6894220129136018e-10 -6.5322494822673939e-10 0.0000000000000000e+00  -2.8807450647819681e-10 1.4000990490661282e-09 0.0000000000000000e+00  -5.0371451943643315e-10 1.2667780001926407e-09 0.0000000000000000e+00  -8.5607772292273700e-10 1.2647447729993336e-09 0.0000000000000000e+00  -1.2306021469618092e-09 1.2102371124827850e-09 0.0000000000000000e+00  -1.5869869319925673e-09 1.1105034542545416e-09 0.0000000000000000e+00  -1.9095857971840503e-09 9.7425109120786621e-10 0.0000000000000000e+00  -2.1872986405362999e-09 8.0867540773817157e-10 0.0000000000000000e+00  -2.4114045088320907e-09 6.2008326712985024e-10 0.0000000000000000e+00  -2.5752613576271240e-09 4.1449634919096968e-10 0.0000000000000000e+00  -2.6742125362260002e-09 1.9791793784689495e-10 0.0000000000000000e+00  -2.7055547774102905e-09 -2.3599358208272371e-11 0.0000000000000000e+00  -2.6685262141666415e-09 -2.4398559622413355e-10 0.0000000000000000e+00  -2.5642874064454344e-09 -4.5722719186430936e-10 0.0000000000000000e+00  -2.3958847695479298e-09 -6.5744810312735778e-10 0.0000000000000000e+00  -2.1681959956299453e-09 -8.3897119912699526e-10 0.0000000000000000e+00  -1.8878741726034647e-09 -9.9632623775067011e-10 0.0000000000000000e+00  -1.5633735406394224e-09 -1.1241574890253636e-09 0.0000000000000000e+00  -1.2054612995618802e-09 -1.2169992540928616e-09 0.0000000000000000e+00  -8.3028146367235554e-10 -1.2688840254703137e-09 0.0000000000000000e+00  -4.7798174892750437e-10 -1.2710434404890248e-09 0.0000000000000000e+00  -2.7032697210193618e-10 -1.0736328162948249e-09 0.0000000000000000e+00  -3.0516094464429634e-10 1.8297331968764893e-09 0.0000000000000000e+00  -5.0526660945999711e-10 1.6798135010473783e-09 0.0000000000000000e+00  -8.5426404172323198e-10 1.6556588016060399e-09 0.0000000000000000e+00  -1.2242980957783750e-09 1.5775388232245277e-09 0.0000000000000000e+00  -1.5732403117826741e-09 1.4469785389516954e-09 0.0000000000000000e+00  -1.8870537162532089e-09 1.2707595821141201e-09 0.0000000000000000e+00  -2.1562276241595537e-09 1.0566070233011584e-09 0.0000000000000000e+00  -2.3729664227443773e-09 8.1225201306779475e-10 0.0000000000000000e+00  -2.5310838689622523e-09 5.4544625709710756e-10 0.0000000000000000e+00  -2.6261453360941971e-09 2.6403189889189986e-10 0.0000000000000000e+00  -2.6555504350267539e-09 -2.4061901397517997e-11 0.0000000000000000e+00  -2.6185593235386125e-09 -3.1088594821085249e-10 0.0000000000000000e+00  -2.5162813407944612e-09 -5.8857341216737642e-10 0.0000000000000000e+00  -2.3516305444257422e-09 -8.4945433384269613e-10 0.0000000000000000e+00  -2.1292465962121059e-09 -1.0861649792378945e-09 0.0000000000000000e+00  -1.8553875743858111e-09 -1.2917425962017582e-09 0.0000000000000000e+00  -1.5378740390989449e-09 -1.4597196416704919e-09 0.0000000000000000e+00  -1.1865764760888147e-09 -1.5842922273420837e-09 0.0000000000000000e+00  -8.1699152596663205e-10 -1.6604649269748478e-09 0.0000000000000000e+00  -4.7100097720056939e-10 -1.6811306550018639e-09 0.0000000000000000e+00  -2.7917786878409396e-10 -1.4980673487635990e-09 0.0000000000000000e+00  -3.2830228443450680e-10 2.2553217132220649e-09 0.0000000000000000e+00  -5.1184680575454245e-10 2.0926634307013105e-09 0.0000000000000000e+00  -8.5940275088363258e-10 2.0477838186574774e-09 0.0000000000000000e+00  -1.2301275454328403e-09 1.9435070137940485e-09 0.0000000000000000e+00  -1.5784672846142971e-09 1.7800367750826022e-09 0.0000000000000000e+00  -1.8901405871071180e-09 1.5630264626875883e-09 0.0000000000000000e+00  -2.1563142182270175e-09 1.3003842286399191e-09 0.0000000000000000e+00  -2.3698777498768210e-09 1.0008828956002986e-09 0.0000000000000000e+00  -2.5251136526923655e-09 6.7376063664404421e-10 0.0000000000000000e+00  -2.6178669138545548e-09 3.2855440625362851e-10 0.0000000000000000e+00  -2.6456849804006997e-09 -2.5023280563637927e-11 0.0000000000000000e+00  -2.6078811294778358e-09 -3.7721738437801183e-10 0.0000000000000000e+00  -2.5055387086777252e-09 -7.1837989045548616e-10 0.0000000000000000e+00  -2.3414680548169473e-09 -1.0391316470828665e-09 0.0000000000000000e+00  -2.1201193547665651e-09 -1.3305342310480252e-09 0.0000000000000000e+00  -1.8474664853572181e-09 -1.5842800385539921e-09 0.0000000000000000e+00  -1.5309782411214237e-09 -1.7929312801729408e-09 0.0000000000000000e+00  -1.1803005768101625e-09 -1.9502539695591732e-09 0.0000000000000000e+00  -8.1153639963991552e-10 -2.0513361000923883e-09 0.0000000000000000e+00  -4.6966773029427045e-10 -2.0888836025733368e-09 0.0000000000000000e+00  -2.9462333710768317e-10 -1.9161892295709140e-09 0.0000000000000000e+00  -3.5705420335852582e-10 2.6817168004046753e-09 0.0000000000000000e+00  -5.2359782178578103e-10 2.5079256658641970e-09 0.0000000000000000e+00  -8.7165904851954168e-10 2.4437635120032627e-09 0.0000000000000000e+00  -1.2463180422740732e-09 2.3124499219726188e-09 0.0000000000000000e+00  -1.5982208469867830e-09 2.1144275772462517e-09 0.0000000000000000e+00  -1.9121229467036339e-09 1.8552988786088176e-09 0.0000000000000000e+00  -2.1792263212083172e-09 1.5433719915259700e-09 0.0000000000000000e+00  -2.3927486849791359e-09 1.1883716668336665e-09 0.0000000000000000e+00  -2.5473089719151735e-09 8.0088136485010620e-10 0.0000000000000000e+00  -2.6390070045662064e-09 3.9201286413643979e-10 0.0000000000000000e+00  -2.6655522315869071e-09 -2.6832184800591467e-11 0.0000000000000000e+00  -2.6263361562195916e-09 -4.4417108095724187e-10 0.0000000000000000e+00  -2.5224471206154399e-09 -8.4864535622379402e-10 0.0000000000000000e+00  -2.3566367892883089e-09 -1.2292346157959145e-09 0.0000000000000000e+00  -2.1332457769802006e-09 -1.5754887479892281e-09 0.0000000000000000e+00  -1.8581165774779216e-09 -1.8777928807561010e-09 0.0000000000000000e+00  -1.5386468608061191e-09 -2.1276857197402997e-09 0.0000000000000000e+00  -1.1847009253590160e-09 -2.3182251031920630e-09 0.0000000000000000e+00  -8.1349989784882438e-10 -2.4439746984831187e-09 0.0000000000000000e+00  -4.7360788281370722e-10 -2.4968628690566243e-09 0.0000000000000000e+00  -3.1581954034389038e-10 -2.3304419177256453e-09 0.0000000000000000e+00  -3.9122743156838178e-10 3.1125688030967961e-09 0.0000000000000000e+00  -5.3968427523679726e-10 2.9284857301386184e-09 0.0000000000000000e+00  -8.8960092196570340e-10 2.8460460881581478e-09 0.0000000000000000e+00  -1.2702041462133579e-09 2.6873300590823344e-09 0.0000000000000000e+00  -1.6280539273070038e-09 2.4535172642184551e-09 0.0000000000000000e+00  -1.9467148509780183e-09 2.1508297359240888e-09 0.0000000000000000e+00  -2.2171133478246554e-09 1.7883352336379115e-09 0.0000000000000000e+00  -2.4325490936735787e-09 1.3768121451816127e-09 0.0000000000000000e+00  -2.5878416399500427e-09 9.2816843682924651e-10 0.0000000000000000e+00  -2.6792945479204869e-09 4.5502788102295482e-10 0.0000000000000000e+00  -2.7047737635303330e-09 -2.9590438172946404e-11 0.0000000000000000e+00  -2.6637633601705047e-09 -5.1254480923730183e-10 0.0000000000000000e+00  -2.5573816012029260e-09 -9.8082602620247679e-10 0.0000000000000000e+00  -2.3883611906635452e-09 -1.4218165012690782e-09 0.0000000000000000e+00  -2.1610021871658248e-09 -1.8235706505760251e-09 0.0000000000000000e+00  -1.8811338136481295e-09 -2.1751312508471559e-09 0.0000000000000000e+00  -1.5562613022611993e-09 -2.4668888136773458e-09 0.0000000000000000e+00  -1.1966834969903849e-09 -2.6909454781869374e-09 0.0000000000000000e+00  -8.2094258309176763e-10 -2.8410231167055311e-09 0.0000000000000000e+00  -4.8161382124276816e-10 -2.9081319569919275e-09 0.0000000000000000e+00  -3.4244631718225684e-10 -2.7448568509705076e-09 0.0000000000000000e+00  -4.3077161118681133e-10 3.5500084404775131e-09 0.0000000000000000e+00  -5.5883685754352088e-10 3.3563842407693568e-09 0.0000000000000000e+00  -9.1088653636346808e-10 3.2562261970442712e-09 0.0000000000000000e+00  -1.2981903373894245e-09 3.0697698297571986e-09 0.0000000000000000e+00  -1.6628673407971790e-09 2.7990910850788165e-09 0.0000000000000000e+00  -1.9872242050457693e-09 2.4514080488014965e-09 0.0000000000000000e+00  -2.2618133527862250e-09 2.0368614028744431e-09 0.0000000000000000e+00  -2.4799121368303452e-09 1.5674516604820014e-09 0.0000000000000000e+00  -2.6364725650885686e-09 1.0564652587898856e-09 0.0000000000000000e+00  -2.7279750773073388e-09 5.1802316960201114e-10 0.0000000000000000e+00  -2.7524411088422394e-09 -3.3286947645628269e-11 0.0000000000000000e+00  -2.7094560098625591e-09 -5.8272383343825121e-10 0.0000000000000000e+00  -2.6001786251600491e-09 -1.1156798075032525e-09 0.0000000000000000e+00  -2.4273374042625655e-09 -1.6179690919735552e-09 0.0000000000000000e+00  -2.1952196167103426e-09 -2.0761400568719810e-09 0.0000000000000000e+00  -1.9096912622737951e-09 -2.4778264104140199e-09 0.0000000000000000e+00  -1.5784366132967968e-09 -2.8121365331674005e-09 0.0000000000000000e+00  -1.2122671247882272e-09 -3.0700296025732558e-09 0.0000000000000000e+00  -8.3115407437729329e-10 -3.2442169033191871e-09 0.0000000000000000e+00  -4.9218001128118086e-10 -3.3247750696420305e-09 0.0000000000000000e+00  -3.7439483963887883e-10 -3.1624954993076403e-09 0.0000000000000000e+00  -4.7571888313198204e-10 3.9944429217824695e-09 0.0000000000000000e+00  -5.7948698043462760e-10 3.7923227120254372e-09 0.0000000000000000e+00  -9.3249909473324794e-10 3.6746510751532326e-09 0.0000000000000000e+00  -1.3257815524987809e-09 3.4599868422712379e-09 0.0000000000000000e+00  -1.6966097694889190e-09 3.1513894961585038e-09 0.0000000000000000e+00  -2.0260190921639114e-09 2.7573143113595890e-09 0.0000000000000000e+00  -2.3042141183871798e-09 2.2892241798492783e-09 0.0000000000000000e+00  -2.5244682613001118e-09 1.7605153377940251e-09 0.0000000000000000e+00  -2.6818870382173875e-09 1.1859339315551514e-09 0.0000000000000000e+00  -2.7731544626865036e-09 5.8110363174336630e-10 0.0000000000000000e+00  -2.7964713086496361e-09 -3.7862822138456515e-11 0.0000000000000000e+00  -2.7515346207157331e-09 -6.5468932739095867e-10 0.0000000000000000e+00  -2.6395356979100190e-09 -1.2532294132348859e-09 0.0000000000000000e+00  -2.4631749075611846e-09 -1.8177603157162530e-09 0.0000000000000000e+00  -2.2266960249601507e-09 -2.3333082392949999e-09 0.0000000000000000e+00  -1.9359738492860276e-09 -2.7860236268256292e-09 0.0000000000000000e+00  -1.5988516544034501e-09 -3.1636043167074613e-09 0.0000000000000000e+00  -1.2266488201018663e-09 -3.4557124884514620e-09 0.0000000000000000e+00  -8.4084426711126916e-10 -3.6539306265148731e-09 0.0000000000000000e+00  -5.0356685096509755e-10 -3.7474062867785908e-09 0.0000000000000000e+00  -4.1165580803462388e-10 -3.5848578429663957e-09 0.0000000000000000e+00  -5.2615377512725217e-10 4.4443103167489313e-09 0.0000000000000000e+00  -5.9976627892887934e-10 4.2353143054180178e-09 0.0000000000000000e+00  -9.5076059029353360e-10 4.1000689186004357e-09 0.0000000000000000e+00  -1.3475038012080275e-09 3.8565787530258490e-09 0.0000000000000000e+00  -1.7220156725637286e-09 3.5090000778609719e-09 0.0000000000000000e+00  -2.0540805498955612e-09 3.0672312710804398e-09 0.0000000000000000e+00  -2.3336701939821336e-09 2.5442749333965878e-09 0.0000000000000000e+00  -2.5541799371434936e-09 1.9550858268110934e-09 0.0000000000000000e+00  -2.7109860924880626e-09 1.3159480940725331e-09 0.0000000000000000e+00  -2.8010731429807582e-09 6.4398378425740325e-10 0.0000000000000000e+00  -2.8228842847936520e-09 -4.3234751787878320e-11 0.0000000000000000e+00  -2.7762465014511477e-09 -7.2799192376322279e-10 0.0000000000000000e+00  -2.6623533398222041e-09 -1.3926936099820035e-09 0.0000000000000000e+00  -2.4838042956508979e-09 -2.0201356868336118e-09 0.0000000000000000e+00  -2.2446981228321579e-09 -2.5938192336157890e-09 0.0000000000000000e+00  -1.9508059783329234e-09 -3.0983405898241660e-09 0.0000000000000000e+00  -1.6100255500510754e-09 -3.5198582330745799e-09 0.0000000000000000e+00  -1.2341153055863484e-09 -3.8465833501145198e-09 0.0000000000000000e+00  -8.4611939243398665e-10 -4.0688465624167559e-09 0.0000000000000000e+00  -5.1376331988651009e-10 -4.1748564154484788e-09 0.0000000000000000e+00  -4.5427872357798281e-10 -4.0116335696831717e-09 0.0000000000000000e+00  -5.8219784653601074e-10 4.8957530903154624e-09 0.0000000000000000e+00  -6.1745074824673372e-10 4.6823267444941544e-09 0.0000000000000000e+00  -9.6123507949674588e-10 4.5292504664312836e-09 0.0000000000000000e+00  -1.3567236845228136e-09 4.2561930252861459e-09 0.0000000000000000e+00  -1.7302919056300938e-09 3.8685922668518690e-09 0.0000000000000000e+00  -2.0605370301401101e-09 3.3780216065600481e-09 0.0000000000000000e+00  -2.3374002079190954e-09 2.7992453727027474e-09 0.0000000000000000e+00  -2.5546340805310362e-09 2.1489329940594445e-09 0.0000000000000000e+00  -2.7081098347333574e-09 1.4449644229501601e-09 0.0000000000000000e+00  -2.7952941099793785e-09 7.0591735607872446e-10 0.0000000000000000e+00  -2.8149867571467894e-09 -4.9296977037220045e-11 0.0000000000000000e+00  -2.7671752747921420e-09 -8.0168378942863026e-10 0.0000000000000000e+00  -2.6529987772417830e-09 -1.5323561935078245e-09 0.0000000000000000e+00  -2.4748224069677082e-09 -2.2227358392407754e-09 0.0000000000000000e+00  -2.2364124953143516e-09 -2.8548269747097523e-09 0.0000000000000000e+00  -1.9432264982875461e-09 -3.4116090360656555e-09 0.0000000000000000e+00  -1.6030197916735481e-09 -3.8775590783632946e-09 0.0000000000000000e+00  -1.2278529677797065e-09 -4.2392530780101152e-09 0.0000000000000000e+00  -8.4236310579010653e-10 -4.4856056079311380e-09 0.0000000000000000e+00  -5.2041331787693122e-10 -4.6038456960645789e-09 0.0000000000000000e+00  -5.0235232488355659e-10 -4.4404437732681534e-09 0.0000000000000000e+00  -6.4400579180397731e-10 5.3421935556921777e-09 0.0000000000000000e+00  -6.2987716811664272e-10 5.1278613402119190e-09 0.0000000000000000e+00  -9.5856700222771609e-10 4.9565429670013649e-09 0.0000000000000000e+00  -1.3453868350531632e-09 4.6530890727043110e-09 0.0000000000000000e+00  -1.7107277282378406e-09 4.2245116411794932e-09 0.0000000000000000e+00  -2.0321291167600062e-09 3.6843629493234982e-09 0.0000000000000000e+00  -2.2998105913290771e-09 3.0494294311742652e-09 0.0000000000000000e+00  -2.5082470980168181e-09 2.3382548831288075e-09 0.0000000000000000e+00  -2.6541567414543707e-09 1.5703396829135417e-09 0.0000000000000000e+00  -2.7357740624074354e-09 7.6560640727473109e-10 0.0000000000000000e+00  -2.7524340269140374e-09 -5.5910552018167083e-11 0.0000000000000000e+00  -2.7043311818844897e-09 -8.7420598534888951e-10 0.0000000000000000e+00  -2.5924600881763382e-09 -1.6693604287568242e-09 0.0000000000000000e+00  -2.4187410022651445e-09 -2.4216138559053953e-09 0.0000000000000000e+00  -2.1863120532529749e-09 -3.1115540761646340e-09 0.0000000000000000e+00  -1.8999851032416359e-09 -3.7204922497379981e-09 0.0000000000000000e+00  -1.5670624254673975e-09 -4.2310530632657903e-09 0.0000000000000000e+00  -1.1996838021078304e-09 -4.6279321745514800e-09 0.0000000000000000e+00  -8.2406299790194899e-10 -4.8983891544303159e-09 0.0000000000000000e+00  -5.2072070037985111e-10 -5.0285858014051344e-09 0.0000000000000000e+00  -5.5599316053809678e-10 -4.8665011441933365e-09 0.0000000000000000e+00  -7.1177466396113561e-10 5.7737955745837998e-09 0.0000000000000000e+00  -6.3384153002719061e-10 5.5634377814394217e-09 0.0000000000000000e+00  -9.3627188797975534e-10 5.3733256315082028e-09 0.0000000000000000e+00  -1.3036839377207716e-09 5.0385800378459108e-09 0.0000000000000000e+00  -1.6502155325702552e-09 4.5682314416028215e-09 0.0000000000000000e+00  -1.9525721