<?xml version="1.0"?>
<VTKFile type="UnstructuredGrid"  version="0.1"  >
<UnstructuredGrid>
<Piece  NumberOfPoints="651" NumberOfCells="1200">
<Points>
<DataArray  type="Float64"  NumberOfComponents="3"  format="ascii">0 0 0  50000 0 0  100000 0 0  150000 0 0  200000 0 0  250000 0 0  300000 0 0  350000 0 0  400000 0 0  450000 0 0  500000 0 0  550000 0 0  600000 0 0  650000 0 0  700000 0 0  750000 0 0  800000 0 0  850000 0 0  900000 0 0  950000 0 0  1000000 0 0  0 50000 0  50000 50000 0  100000 50000 0  150000 50000 0  200000 50000 0  250000 50000 0  300000 50000 0  350000 50000 0  400000 50000 0  450000 50000 0  500000 50000 0  550000 50000 0  600000 50000 0  650000 50000 0  700000 50000 0  750000 50000 0  800000 50000 0  850000 50000 0  900000 50000 0  950000 50000 0  1000000 50000 0  0 100000 0  50000 100000 0  100000 100000 0  150000 100000 0  200000 100000 0  250000 100000 0  300000 100000 0  350000 100000 0  400000 100000 0  450000 100000 0  500000 100000 0  550000 100000 0  600000 100000 0  650000 100000 0  700000 100000 0  750000 100000 0  800000 100000 0  850000 100000 0  900000 100000 0  950000 100000 0  1000000 100000 0  0 150000 0  50000 150000 0  100000 150000 0  150000 150000 0  200000 150000 0  250000 150000 0  300000 150000 0  350000 150000 0  400000 150000 0  450000 150000 0  500000 150000 0  550000 150000 0  600000 150000 0  650000 150000 0  700000 150000 0  750000 150000 0  800000 150000 0  850000 150000 0  900000 150000 0  950000 150000 0  1000000 150000 0  0 200000 0  50000 200000 0  100000 200000 0  150000 200000 0  200000 200000 0  250000 200000 0  300000 200000 0  350000 200000 0  400000 200000 0  450000 200000 0  500000 200000 0  550000 200000 0  600000 200000 0  650000 200000 0  700000 200000 0  750000 200000 0  800000 200000 0  850000 200000 0  900000 200000 0  950000 200000 0  1000000 200000 0  0 250000 0  50000 250000 0  100000 250000 0  150000 250000 0  200000 250000 0  250000 250000 0  300000 250000 0  350000 250000 0  400000 250000 0  450000 250000 0  500000 250000 0  550000 250000 0  600000 250000 0  650000 250000 0  700000 250000 0  750000 250000 0  800000 250000 0  850000 250000 0  900000 250000 0  950000 250000 0  1000000 250000 0  0 300000 0  50000 300000 0  100000 300000 0  150000 300000 0  200000 300000 0  250000 300000 0  300000 300000 0  350000 300000 0  400000 300000 0  450000 300000 0  500000 300000 0  550000 300000 0  600000 300000 0  650000 300000 0  700000 300000 0  750000 300000 0  800000 300000 0  850000 300000 0  900000 300000 0  950000 300000 0  1000000 300000 0  0 350000 0  50000 350000 0  100000 350000 0  150000 350000 0  200000 350000 0  250000 350000 0  300000 350000 0  350000 350000 0  400000 350000 0  450000 350000 0  500000 350000 0  550000 350000 0  600000 350000 0  650000 350000 0  700000 350000 0  750000 350000 0  800000 350000 0  850000 350000 0  900000 350000 0  950000 350000 0  1000000 350000 0  0 400000 0  50000 400000 0  100000 400000 0  150000 400000 0  200000 400000 0  250000 400000 0  300000 400000 0  350000 400000 0  400000 400000 0  450000 400000 0  500000 400000 0  550000 400000 0  600000 400000 0  650000 400000 0  700000 400000 0  750000 400000 0  800000 400000 0  850000 400000 0  900000 400000 0  950000 400000 0  1000000 400000 0  0 450000 0  50000 450000 0  100000 450000 0  150000 450000 0  200000 450000 0  250000 450000 0  300000 450000 0  350000 450000 0  400000 450000 0  450000 450000 0  500000 450000 0  550000 450000 0  600000 450000 0  650000 450000 0  700000 450000 0  750000 450000 0  800000 450000 0  850000 450000 0  900000 450000 0  950000 450000 0  1000000 450000 0  0 500000 0  50000 500000 0  100000 500000 0  150000 500000 0  200000 500000 0  250000 500000 0  300000 500000 0  350000 500000 0  400000 500000 0  450000 500000 0  500000 500000 0  550000 500000 0  600000 500000 0  650000 500000 0  700000 500000 0  750000 500000 0  800000 500000 0  850000 500000 0  900000 500000 0  950000 500000 0  1000000 500000 0  0 550000 0  50000 550000 0  100000 550000 0  150000 550000 0  200000 550000 0  250000 550000 0  300000 550000 0  350000 550000 0  400000 550000 0  450000 550000 0  500000 550000 0  550000 550000 0  600000 550000 0  650000 550000 0  700000 550000 0  750000 550000 0  800000 550000 0  850000 550000 0  900000 550000 0  950000 550000 0  1000000 550000 0  0 600000 0  50000 600000 0  100000 600000 0  150000 600000 0  200000 600000 0  250000 600000 0  300000 600000 0  350000 600000 0  400000 600000 0  450000 600000 0  500000 600000 0  550000 600000 0  600000 600000 0  650000 600000 0  700000 600000 0  750000 600000 0  800000 600000 0  850000 600000 0  900000 600000 0  950000 600000 0  1000000 600000 0  0 650000 0  50000 650000 0  100000 650000 0  150000 650000 0  200000 650000 0  250000 650000 0  300000 650000 0  350000 650000 0  400000 650000 0  450000 650000 0  500000 650000 0  550000 650000 0  600000 650000 0  650000 650000 0  700000 650000 0  750000 650000 0  800000 650000 0  850000 650000 0  900000 650000 0  950000 650000 0  1000000 650000 0  0 700000 0  50000 700000 0  100000 700000 0  150000 700000 0  200000 700000 0  250000 700000 0  300000 700000 0  350000 700000 0  400000 700000 0  450000 700000 0  500000 700000 0  550000 700000 0  600000 700000 0  650000 700000 0  700000 700000 0  750000 700000 0  800000 700000 0  850000 700000 0  900000 700000 0  950000 700000 0  1000000 700000 0  0 750000 0  50000 750000 0  100000 750000 0  150000 750000 0  200000 750000 0  250000 750000 0  300000 750000 0  350000 750000 0  400000 750000 0  450000 750000 0  500000 750000 0  550000 750000 0  600000 750000 0  650000 750000 0  700000 750000 0  750000 750000 0  800000 750000 0  850000 750000 0  900000 750000 0  950000 750000 0  1000000 750000 0  0 800000 0  50000 800000 0  100000 800000 0  150000 800000 0  200000 800000 0  250000 800000 0  300000 800000 0  350000 800000 0  400000 800000 0  450000 800000 0  500000 800000 0  550000 800000 0  600000 800000 0  650000 800000 0  700000 800000 0  750000 800000 0  800000 800000 0  850000 800000 0  900000 800000 0  950000 800000 0  1000000 800000 0  0 850000 0  50000 850000 0  100000 850000 0  150000 850000 0  200000 850000 0  250000 850000 0  300000 850000 0  350000 850000 0  400000 850000 0  450000 850000 0  500000 850000 0  550000 850000 0  600000 850000 0  650000 850000 0  700000 850000 0  750000 850000 0  800000 850000 0  850000 850000 0  900000 850000 0  950000 850000 0  1000000 850000 0  0 900000 0  50000 900000 0  100000 900000 0  150000 900000 0  200000 900000 0  250000 900000 0  300000 900000 0  350000 900000 0  400000 900000 0  450000 900000 0  500000 900000 0  550000 900000 0  600000 900000 0  650000 900000 0  700000 900000 0  750000 900000 0  800000 900000 0  850000 900000 0  900000 900000 0  950000 900000 0  1000000 900000 0  0 950000 0  50000 950000 0  100000 950000 0  150000 950000 0  200000 950000 0  250000 950000 0  300000 950000 0  350000 950000 0  400000 950000 0  450000 950000 0  500000 950000 0  550000 950000 0  600000 950000 0  650000 950000 0  700000 950000 0  750000 950000 0  800000 950000 0  850000 950000 0  900000 950000 0  950000 950000 0  1000000 950000 0  0 1000000 0  50000 1000000 0  100000 1000000 0  150000 1000000 0  200000 1000000 0  250000 1000000 0  300000 1000000 0  350000 1000000 0  400000 1000000 0  450000 1000000 0  500000 1000000 0  550000 1000000 0  600000 1000000 0  650000 1000000 0  700000 1000000 0  750000 1000000 0  800000 1000000 0  850000 1000000 0  900000 1000000 0  950000 1000000 0  1000000 1000000 0  0 1050000 0  50000 1050000 0  100000 1050000 0  150000 1050000 0  200000 1050000 0  250000 1050000 0  300000 1050000 0  350000 1050000 0  400000 1050000 0  450000 1050000 0  500000 1050000 0  550000 1050000 0  600000 1050000 0  650000 1050000 0  700000 1050000 0  750000 1050000 0  800000 1050000 0  850000 1050000 0  900000 1050000 0  950000 1050000 0  1000000 1050000 0  0 1100000 0  50000 1100000 0  100000 1100000 0  150000 1100000 0  200000 1100000 0  250000 1100000 0  300000 1100000 0  350000 1100000 0  400000 1100000 0  450000 1100000 0  500000 1100000 0  550000 1100000 0  600000 1100000 0  650000 1100000 0  700000 1100000 0  750000 1100000 0  800000 1100000 0  850000 1100000 0  900000 1100000 0  950000 1100000 0  1000000 1100000 0  0 1150000 0  50000 1150000 0  100000 1150000 0  150000 1150000 0  200000 1150000 0  250000 1150000 0  300000 1150000 0  350000 1150000 0  400000 1150000 0  450000 1150000 0  500000 1150000 0  550000 1150000 0  600000 1150000 0  650000 1150000 0  700000 1150000 0  750000 1150000 0  800000 1150000 0  850000 1150000 0  900000 1150000 0  950000 1150000 0  1000000 1150000 0  0 1200000 0  50000 1200000 0  100000 1200000 0  150000 1200000 0  200000 1200000 0  250000 1200000 0  300000 1200000 0  350000 1200000 0  400000 1200000 0  450000 1200000 0  500000 1200000 0  550000 1200000 0  600000 1200000 0  650000 1200000 0  700000 1200000 0  750000 1200000 0  800000 1200000 0  850000 1200000 0  900000 1200000 0  950000 1200000 0  1000000 1200000 0  0 1250000 0  50000 1250000 0  100000 1250000 0  150000 1250000 0  200000 1250000 0  250000 1250000 0  300000 1250000 0  350000 1250000 0  400000 1250000 0  450000 1250000 0  500000 1250000 0  550000 1250000 0  600000 1250000 0  650000 1250000 0  700000 1250000 0  750000 1250000 0  800000 1250000 0  850000 1250000 0  900000 1250000 0  950000 1250000 0  1000000 1250000 0  0 1300000 0  50000 1300000 0  100000 1300000 0  150000 1300000 0  200000 1300000 0  250000 1300000 0  300000 1300000 0  350000 1300000 0  400000 1300000 0  450000 1300000 0  500000 1300000 0  550000 1300000 0  600000 1300000 0  650000 1300000 0  700000 1300000 0  750000 1300000 0  800000 1300000 0  850000 1300000 0  900000 1300000 0  950000 1300000 0  1000000 1300000 0  0 1350000 0  50000 1350000 0  100000 1350000 0  150000 1350000 0  200000 1350000 0  250000 1350000 0  300000 1350000 0  350000 1350000 0  400000 1350000 0  450000 1350000 0  500000 1350000 0  550000 1350000 0  600000 1350000 0  650000 1350000 0  700000 135
[...]
<PointData  Vectors="f_15"> 
<DataArray  type="Float64"  Name="f_15"  NumberOfComponents="3" format="ascii">-3.1195098569520145e-10 3.3833970885110899e-10 0.0000000000000000e+00  -5.8512119903250589e-10 2.8565603932419102e-10 0.0000000000000000e+00  -1.0703062291309952e-09 2.6344286095451410e-10 0.0000000000000000e+00  -1.5389259979451547e-09 2.4351584726415552e-10 0.0000000000000000e+00  -1.9678932176239437e-09 2.2010527026138708e-10 0.0000000000000000e+00  -2.3446859792457833e-09 1.9270244657136515e-10 0.0000000000000000e+00  -2.6591351299548144e-09 1.6163286857632402e-10 0.0000000000000000e+00  -2.9030166328208243e-09 1.2750673305423340e-10 0.0000000000000000e+00  -3.0700419973540615e-09 9.1093988816347901e-11 0.0000000000000000e+00  -3.1559704153202054e-09 5.3257931399995147e-11 0.0000000000000000e+00  -3.1587006351746975e-09 1.4912229465970708e-11 0.0000000000000000e+00  -3.0783152797076796e-09 -2.3011907789893355e-11 0.0000000000000000e+00  -2.9170725783722815e-09 -5.9594520969112343e-11 0.0000000000000000e+00  -2.6793453460888188e-09 -9.3954753080050371e-11 0.0000000000000000e+00  -2.3715175852058948e-09 -1.2528187523684524e-10 0.0000000000000000e+00  -2.0019042267197300e-09 -1.5288344043529435e-10 0.0000000000000000e+00  -1.5810400194955789e-09 -1.7630228693438807e-10 0.0000000000000000e+00  -1.1239280539986724e-09 -1.9564605796761012e-10 0.0000000000000000e+00  -6.6072410381113017e-10 -2.1125655879472387e-10 0.0000000000000000e+00  -2.8222986420115475e-10 -2.0511532249643385e-10 0.0000000000000000e+00  -1.2290461091695775e-10 -1.2195239541473771e-10 0.0000000000000000e+00  -2.6366495097422218e-10 5.9004736234962118e-10 0.0000000000000000e+00  -4.9889007547286839e-10 5.0374055522912815e-10 0.0000000000000000e+00  -8.9206413946019140e-10 5.0653325571533766e-10 0.0000000000000000e+00  -1.3133949309247848e-09 4.8268468467004491e-10 0.0000000000000000e+00  -1.7140114012767072e-09 4.4020506665541253e-10 0.0000000000000000e+00  -2.0752330076871720e-09 3.8404420986896920e-10 0.0000000000000000e+00  -2.3848273084230746e-09 3.1704591563769975e-10 0.0000000000000000e+00  -2.6335284360986181e-09 2.4152944644279433e-10 0.0000000000000000e+00  -2.8143188716635024e-09 1.5973825279182421e-10 0.0000000000000000e+00  -2.9222648529657908e-09 7.3951220443770993e-11 0.0000000000000000e+00  -2.9545119712476769e-09 -1.3507312985071868e-11 0.0000000000000000e+00  -2.9103016602540744e-09 -1.0029387857751712e-10 0.0000000000000000e+00  -2.7909701529441657e-09 -1.8408434093298681e-10 0.0000000000000000e+00  -2.5999225408827874e-09 -2.6261216095969861e-10 0.0000000000000000e+00  -2.3425928992148662e-09 -3.3369471082606930e-10 0.0000000000000000e+00  -2.0264406113327450e-09 -3.9522538942778228e-10 0.0000000000000000e+00  -1.6611654756536331e-09 -4.4506381710712505e-10 0.0000000000000000e+00  -1.2598403388140911e-09 -4.8051443373998259e-10 0.0000000000000000e+00  -8.4389017141727834e-10 -4.9547498853573816e-10 0.0000000000000000e+00  -4.6527176298657755e-10 -4.6618217000165124e-10 0.0000000000000000e+00  -2.1389870969434531e-10 -2.6978032159610321e-10 0.0000000000000000e+00  -2.5834536395914382e-10 1.0370209964622737e-09 0.0000000000000000e+00  -5.1077273950853373e-10 8.7914144129012964e-10 0.0000000000000000e+00  -8.8989816998245107e-10 8.6886768056784711e-10 0.0000000000000000e+00  -1.2825983289086980e-09 8.2966398250740876e-10 0.0000000000000000e+00  -1.6540648784632122e-09 7.5958727747692588e-10 0.0000000000000000e+00  -1.9890352378074038e-09 6.6450065473794644e-10 0.0000000000000000e+00  -2.2764475333394649e-09 5.4942631291313980e-10 0.0000000000000000e+00  -2.5075416241162426e-09 4.1868796532587603e-10 0.0000000000000000e+00  -2.6755739689273045e-09 2.7642000744517953e-10 0.0000000000000000e+00  -2.7757937303199773e-09 1.2676112664517035e-10 0.0000000000000000e+00  -2.8054509680947140e-09 -2.6104716040003389e-11 0.0000000000000000e+00  -2.7638074149917054e-09 -1.7797289653815704e-10 0.0000000000000000e+00  -2.6521346594104007e-09 -3.2466756435336348e-10 0.0000000000000000e+00  -2.4736953353111232e-09 -4.6209010765509230e-10 0.0000000000000000e+00  -2.2337167965883761e-09 -5.8623975482204334e-10 0.0000000000000000e+00  -1.9393948743179335e-09 -6.9315914957063986e-10 0.0000000000000000e+00  -1.6000551558520775e-09 -7.7869597484335419e-10 0.0000000000000000e+00  -1.2279484261647474e-09 -8.3780169507165436e-10 0.0000000000000000e+00  -8.4147595681435331e-10 -8.6259125648250104e-10 0.0000000000000000e+00  -4.8114638574969019e-10 -8.3995538039741909e-10 0.0000000000000000e+00  -2.2977377273217657e-10 -6.1609616595873764e-10 0.0000000000000000e+00  -2.6796007817373298e-10 1.4773695772381083e-09 0.0000000000000000e+00  -5.0652069725345259e-10 1.3038692828362922e-09 0.0000000000000000e+00  -8.7871509088399550e-10 1.2651846039561766e-09 0.0000000000000000e+00  -1.2617822544513346e-09 1.2000997036683948e-09 0.0000000000000000e+00  -1.6200292417934539e-09 1.0977334405857623e-09 0.0000000000000000e+00  -1.9405489493596364e-09 9.6133355858107916e-10 0.0000000000000000e+00  -2.2143751511339460e-09 7.9638219825854263e-10 0.0000000000000000e+00  -2.4339279921237614e-09 6.0864424901287025e-10 0.0000000000000000e+00  -2.5931182548519380e-09 4.0398598592761401e-10 0.0000000000000000e+00  -2.6875663026834137e-09 1.8839023561577935e-10 0.0000000000000000e+00  -2.7147281418160748e-09 -3.2061770993070008e-11 0.0000000000000000e+00  -2.6739536053927380e-09 -2.5124730047257615e-10 0.0000000000000000e+00  -2.5665005782665503e-09 -4.6307733053788600e-10 0.0000000000000000e+00  -2.3955159228308201e-09 -6.6156884953442394e-10 0.0000000000000000e+00  -2.1659886054324936e-09 -8.4089046831177152e-10 0.0000000000000000e+00  -1.8846875922337883e-09 -9.9535031801561859e-10 0.0000000000000000e+00  -1.5601486867326821e-09 -1.1192914786532564e-09 0.0000000000000000e+00  -1.2030549034995249e-09 -1.2069111991977745e-09 0.0000000000000000e+00  -8.2874654955791259e-10 -1.2521384306604738e-09 0.0000000000000000e+00  -4.7472380636096945e-10 -1.2492125585000954e-09 0.0000000000000000e+00  -2.3415997538160870e-10 -1.0375462196838682e-09 0.0000000000000000e+00  -2.8573555670058789e-10 1.9085926698305000e-09 0.0000000000000000e+00  -5.0603635773688168e-10 1.7286857098135056e-09 0.0000000000000000e+00  -8.7235264573119570e-10 1.6661489043311904e-09 0.0000000000000000e+00  -1.2516817289792918e-09 1.5717326311425209e-09 0.0000000000000000e+00  -1.6053670900723645e-09 1.4341188689315109e-09 0.0000000000000000e+00  -1.9200585339882492e-09 1.2551937274110863e-09 0.0000000000000000e+00  -2.1875614397479374e-09 1.0403578929733506e-09 0.0000000000000000e+00  -2.4011863719386862e-09 7.9629158382804955e-10 0.0000000000000000e+00  -2.5554875477676379e-09 5.3028510332139592e-10 0.0000000000000000e+00  -2.6464977930262028e-09 2.4999013958048774e-10 0.0000000000000000e+00  -2.6719157224159236e-09 -3.6725475193013701e-11 0.0000000000000000e+00  -2.6312040382914104e-09 -3.2190432596016957e-10 0.0000000000000000e+00  -2.5256208991358424e-09 -5.9762362387972982e-10 0.0000000000000000e+00  -2.3581980370186189e-09 -8.5611424875460510e-10 0.0000000000000000e+00  -2.1336685103022401e-09 -1.0898681314473634e-09 0.0000000000000000e+00  -1.8583486267037297e-09 -1.2917347970721675e-09 0.0000000000000000e+00  -1.5400425046326657e-09 -1.4550412747013274e-09 0.0000000000000000e+00  -1.1884198513838813e-09 -1.5738635556189089e-09 0.0000000000000000e+00  -8.1815629528063253e-10 -1.6434929907314743e-09 0.0000000000000000e+00  -4.6933732069076334e-10 -1.6603991856642295e-09 0.0000000000000000e+00  -2.4617723602680236e-10 -1.4632120127746773e-09 0.0000000000000000e+00  -3.1026808561673341e-10 2.3360121254995992e-09 0.0000000000000000e+00  -5.1171013823185728e-10 2.1502830267261178e-09 0.0000000000000000e+00  -8.7435882670620560e-10 2.0679499486084453e-09 0.0000000000000000e+00  -1.2535979577678497e-09 1.9442152454838915e-09 0.0000000000000000e+00  -1.6076125923791064e-09 1.7699732213327949e-09 0.0000000000000000e+00  -1.9219128850986189e-09 1.5473687888662338e-09 0.0000000000000000e+00  -2.1882066915270993e-09 1.2821420556424179e-09 0.0000000000000000e+00  -2.4001427275254415e-09 9.8181405984334650e-10 0.0000000000000000e+00  -2.5526750404253066e-09 6.5493192569409203e-10 0.0000000000000000e+00  -2.6421577179015103e-09 3.1066711323897497e-10 0.0000000000000000e+00  -2.6665030792086040e-09 -4.1447045184250420e-11 0.0000000000000000e+00  -2.6252824305618832e-09 -3.9172331305663981e-10 0.0000000000000000e+00  -2.5197617619229997e-09 -7.3050779017618841e-10 0.0000000000000000e+00  -2.3528782854414282e-09 -1.0483605682921940e-09 0.0000000000000000e+00  -2.1291601214751726e-09 -1.3362403087682264e-09 0.0000000000000000e+00  -1.8546032941136709e-09 -1.5857132495888301e-09 0.0000000000000000e+00  -1.5366186856723507e-09 -1.7892355312220341e-09 0.0000000000000000e+00  -1.1846472256531776e-09 -1.9405953198712116e-09 0.0000000000000000e+00  -8.1411711499498092e-10 -2.0353129063177141e-09 0.0000000000000000e+00  -4.6903619714649013e-10 -2.0699416064214359e-09 0.0000000000000000e+00  -2.6484554830212302e-10 -1.8825982240480127e-09 0.0000000000000000e+00  -3.4109622852728779e-10 2.7644404730575096e-09 0.0000000000000000e+00  -5.2319557190154505e-10 2.5724247001018767e-09 0.0000000000000000e+00  -8.8452708814454952e-10 2.4720568290951541e-09 0.0000000000000000e+00  -1.2664978357377017e-09 2.3197992547247497e-09 0.0000000000000000e+00  -1.6239532857091329e-09 2.1083952238130033e-09 0.0000000000000000e+00  -1.9412071660647554e-09 1.8411411778880321e-09 0.0000000000000000e+00  -2.2095467551214096e-09 1.5246489609736933e-09 0.0000000000000000e+00  -2.4226071952965221e-09 1.1674551112388415e-09 0.0000000000000000e+00  -2.5755030582090878e-09 7.7936370357942395e-10 0.0000000000000000e+00  -2.6647794566493156e-09 3.7100158321813549e-10 0.0000000000000000e+00  -2.6885015956101472e-09 -4.6515219242112021e-11 0.0000000000000000e+00  -2.6463279120400874e-09 -4.6185601310940595e-10 0.0000000000000000e+00  -2.5395373927261233e-09 -8.6372246889852581e-10 0.0000000000000000e+00  -2.3710077205097313e-09 -1.2410896822854321e-09 0.0000000000000000e+00  -2.1451470085007417e-09 -1.5834606155089301e-09 0.0000000000000000e+00  -1.8678063938794149e-09 -1.8811581208948738e-09 0.0000000000000000e+00  -1.5463258930733075e-09 -2.1256879725617645e-09 0.0000000000000000e+00  -1.1904122136823388e-09 -2.3101971447172582e-09 0.0000000000000000e+00  -8.1677780815845702e-10 -2.4297071718190122e-09 0.0000000000000000e+00  -4.7371692610586898e-10 -2.4801474365921484e-09 0.0000000000000000e+00  -2.8924616007953917e-10 -2.2981104792531160e-09 0.0000000000000000e+00  -3.7807203649492613e-10 3.1974746368768354e-09 0.0000000000000000e+00  -5.3939256197878318e-10 2.9986424098679568e-09 0.0000000000000000e+00  -9.0102729248738469e-10 2.8809679791419489e-09 0.0000000000000000e+00  -1.2876798555417182e-09 2.7006274577070014e-09 0.0000000000000000e+00  -1.6504627865801679e-09 2.4517200541585338e-09 0.0000000000000000e+00  -1.9725264528137249e-09 2.1389402701075292e-09 0.0000000000000000e+00  -2.2446838613634608e-09 1.7701252859945548e-09 0.0000000000000000e+00  -2.4604159416371143e-09 1.3550482111767069e-09 0.0000000000000000e+00  -2.6148601868333359e-09 9.0485645107776352e-10 0.0000000000000000e+00  -2.7046581333535653e-09 4.3163561918670894e-10 0.0000000000000000e+00  -2.7279747828732506e-09 -5.1955219981216358e-11 0.0000000000000000e+00  -2.6845327885994921e-09 -5.3299988497184683e-10 0.0000000000000000e+00  -2.5756253000299972e-09 -9.9861561080967302e-10 0.0000000000000000e+00  -2.4040996310500477e-09 -1.4362402188826107e-09 0.0000000000000000e+00  -2.1743147531721590e-09 -1.8339375467480749e-09 0.0000000000000000e+00  -1.8921076229430476e-09 -2.1807415002859254e-09 0.0000000000000000e+00  -1.5649439603379257e-09 -2.4670537600650237e-09 0.0000000000000000e+00  -1.2030214289870472e-09 -2.6850829498610726e-09 0.0000000000000000e+00  -8.2451419396383640e-10 -2.8289786218496362e-09 0.0000000000000000e+00  -4.8232077702579095e-10 -2.8938447308629464e-09 0.0000000000000000e+00  -3.1901169844762874e-10 -2.7137928682220313e-09 0.0000000000000000e+00  -4.2121137597266303e-10 3.6371710417851139e-09 0.0000000000000000e+00  -5.5888129566355862e-10 3.4312807420450636e-09 0.0000000000000000e+00  -9.2121072780199604e-10 3.2964831379809891e-09 0.0000000000000000e+00  -1.3133382516617004e-09 3.0880534900489500e-09 0.0000000000000000e+00  -1.6821107390077543e-09 2.8011706641571709e-09 0.0000000000000000e+00  -2.0095241936183690e-09 2.4419618107521521e-09 0.0000000000000000e+00  -2.2859654871185644e-09 2.0196844347013971e-09 0.0000000000000000e+00  -2.5047597024812588e-09 1.5455264394568428e-09 0.0000000000000000e+00  -2.6610385597089192e-09 1.0320826819631620e-09 0.0000000000000000e+00  -2.7515111141610915e-09 4.9293070146353333e-10 0.0000000000000000e+00  -2.7744217624117137e-09 -5.7743045078069034e-11 0.0000000000000000e+00  -2.7295444479250532e-09 -6.0547705177949189e-10 0.0000000000000000e+00  -2.6181804723198582e-09 -1.1358461502259553e-09 0.0000000000000000e+00  -2.4431522487196564e-09 -1.6347732824925202e-09 0.0000000000000000e+00  -2.2087953080633498e-09 -2.0888643902499331e-09 0.0000000000000000e+00  -1.9209848611275653e-09 -2.4857833772133284e-09 0.0000000000000000e+00  -1.5873845433738732e-09 -2.8146711494398384e-09 0.0000000000000000e+00  -1.2187499256693905e-09 -3.0665829419015996e-09 0.0000000000000000e+00  -8.3478976171719649e-10 -3.2346057964909466e-09 0.0000000000000000e+00  -4.9341154130275290e-10 -3.3129749586655101e-09 0.0000000000000000e+00  -3.5400865823030909e-10 -3.1327410469599996e-09 0.0000000000000000e+00  -4.7062539606883493e-10 4.0838335250118839e-09 0.0000000000000000e+00  -5.7999901155711983e-10 3.8711695240701037e-09 0.0000000000000000e+00  -9.4183303371137071e-10 3.7190962422653093e-09 0.0000000000000000e+00  -1.3387505490122003e-09 3.4822269297494561e-09 0.0000000000000000e+00  -1.7127466644662917e-09 3.1567038384709312e-09 0.0000000000000000e+00  -2.0446481175881558e-09 2.7501084850643839e-09 0.0000000000000000e+00  -2.3245106165147478e-09 2.2732393644715774e-09 0.0000000000000000e+00  -2.5455923224168750e-09 1.7388316284965936e-09 0.0000000000000000e+00  -2.7030836819154500e-09 1.1610159605860256e-09 0.0000000000000000e+00  -2.7938041628588573e-09 5.5489134174757663e-10 0.0000000000000000e+00  -2.8161004462227910e-09 -6.3847269896299009e-11 0.0000000000000000e+00  -2.7697999664493340e-09 -6.7923816919410733e-10 0.0000000000000000e+00  -2.6561950334040955e-09 -1.2753589316592613e-09 0.0000000000000000e+00  -2.4780525348106534e-09 -1.8366370716268611e-09 0.0000000000000000e+00  -2.2396495213418463e-09 -2.3481928129356142e-09 0.0000000000000000e+00  -1.9468674446660829e-09 -2.7962322675943863e-09 0.0000000000000000e+00  -1.6075397227065532e-09 -3.1684919927259858e-09 0.0000000000000000e+00  -1.2329572897072653e-09 -3.4547071014528851e-09 0.0000000000000000e+00  -8.4440948892707228e-10 -3.6467806670102024e-09 0.0000000000000000e+00  -5.0528085330678157e-10 -3.7380708733160000e-09 0.0000000000000000e+00  -3.9422090869368973e-10 -3.5564960627749044e-09 0.0000000000000000e+00  -5.2648124567403473e-10 4.5357604021304605e-09 0.0000000000000000e+00  -6.0080655589944464e-10 4.3173333782493026e-09 0.0000000000000000e+00  -9.5903779184396395e-10 4.1476282162452547e-09 0.0000000000000000e+00  -1.3582350790555511e-09 3.8817349976493243e-09 0.0000000000000000e+00  -1.7349524790268511e-09 3.5167721420554901e-09 0.0000000000000000e+00  -2.0688354229975503e-09 3.0618435852815727e-09 0.0000000000000000e+00  -2.3497469260830279e-09 2.5294003908392184e-09 0.0000000000000000e+00  -2.5710433819176292e-09 1.9338328092249057e-09 0.0000000000000000e+00  -2.7281242284601081e-09 1.2908698444804302e-09 0.0000000000000000e+00  -2.8180357159524062e-09 6.1713344208633380e-10 0.0000000000000000e+00  -2.8392975274895352e-09 -7.0224052562357024e-11 0.0000000000000000e+00  -2.7918091359933013e-09 -7.5382035834316038e-10 0.0000000000000000e+00  -2.6768206312093289e-09 -1.4163125332764706e-09 0.0000000000000000e+00  -2.4969665345282563e-09 -2.0406754867339539e-09 0.0000000000000000e+00  -2.2563592129841755e-09 -2.6105289853942872e-09 0.0000000000000000e+00  -1.9607673400881036e-09 -3.1105396091575703e-09 0.0000000000000000e+00  -1.6180786047700340e-09 -3.5269020561226698e-09 0.0000000000000000e+00  -1.2400326164109148e-09 -3.8478741386870217e-09 0.0000000000000000e+00  -8.4953077368791794e-10 -4.0640578127166606e-09 0.0000000000000000e+00  -5.1593098777607225e-10 -4.1679166047295660e-09 0.0000000000000000e+00  -4.3970468890400657e-10 -3.9847873071791086e-09 0.0000000000000000e+00  -5.8897613032805641e-10 4.9889104506482189e-09 0.0000000000000000e+00  -6.1901476719267811e-10 4.7666626685108039e-09 0.0000000000000000e+00  -9.6823646299057504e-10 4.5788592465408554e-09 0.0000000000000000e+00  -1.3649739202572393e-09 4.2832234730663362e-09 0.0000000000000000e+00  -1.7397744617952072e-09 3.8779872934812883e-09 0.0000000000000000e+00  -2.0711215835228996e-09 3.3739175361624871e-09 0.0000000000000000e+00  -2.3488860191864217e-09 2.7852594737412807e-09 0.0000000000000000e+00  -2.5667739623589517e-09 2.1281629005412213e-09 0.0000000000000000e+00  -2.7206377181260831e-09 1.4199891675914953e-09 0.0000000000000000e+00  -2.8079478251327581e-09 6.7883619566404479e-10 0.0000000000000000e+00  -2.8275209291986717e-09 -7.6800472783096251e-11 0.0000000000000000e+00  -2.7793636001959882e-09 -8.2826717507109928e-10 0.0000000000000000e+00  -2.6646279044950817e-09 -1.5569432310568907e-09 0.0000000000000000e+00  -2.4856809858012706e-09 -2.2444466242700423e-09 0.0000000000000000e+00  -2.2462794686987445e-09 -2.8729149615828729e-09 0.0000000000000000e+00  -1.9518627876856873e-09 -3.4254048235380725e-09 0.0000000000000000e+00  -1.6101659369295593e-09 -3.8864232393536099e-09 0.0000000000000000e+00  -1.2332253629502378e-09 -4.2425689973373679e-09 0.0000000000000000e+00  -8.4556295352432018e-10 -4.4829887236250857e-09 0.0000000000000000e+00  -5.2301008049063223e-10 -4.5992042311017479e-09 0.0000000000000000e+00  -4.9056519861927158e-10 -4.4152692697122707e-09 0.0000000000000000e+00  -6.5831968233189843e-10 5.4364707636726530e-09 0.0000000000000000e+00  -6.3189121927956232e-10 5.2135089497669892e-09 0.0000000000000000e+00  -9.6393379495607366e-10 5.0070966997488845e-09 0.0000000000000000e+00  -1.3507491805492254e-09 4.6809465202159147e-09 0.0000000000000000e+00  -1.7163530217732372e-09 4.2346810585236541e-09 0.0000000000000000e+00  -2.0381451437579091e-09 3.6809689834584392e-09 0.0000000000000000e+00  -2.3062965838980459e-09 3.0360505193529867e-09 0.0000000000000000e+00  -2.5152288525876466e-09 2.3179525473209310e-09 0.0000000000000000e+00  -2.6616076494437557e-09 1.5456703770263578e-09 0.0000000000000000e+00  -2.7436237943562778e-09 7.3865943636569957e-10 0.0000000000000000e+00  -2.7605780184202168e-09 -8.3455029682156614e-11 0.0000000000000000e+00  -2.7126364358539285e-09 -9.0100930553266573e-10 0.0000000000000000e+00  -2.6007661022889981e-09 -1.6943558079951384e-09 0.0000000000000000e+00  -2.4268568392438564e-09 -2.4439389918639150e-09 0.0000000000000000e+00  -2.1940118233343607e-09 -3.1304871803093274e-09 0.0000000000000000e+00  -1.9070046500202311e-09 -3.7353910070293674e-09 0.0000000000000000e+00  -1.5730990026427537e-09 -4.2412987628583413e-09 0.0000000000000000e+00  -1.2043943372399728e-09 -4.6329109412343478e-09 0.0000000000000000e+00  -8.2700366426354593e-10 -4.8976914757507945e-09 0.0000000000000000e+00  -5.2372115110148816e-10 -5.0261258179333429e-09 0.0000000000000000e+00  -5.4694186528490045e-10 -4.8431786238102349e-09 0.0000000000000000e+00  -7.3472491463398602e-10 5.8683119982517498e-09 0.0000000000000000e+00  -6.3615358037356856e-10 5.6491813905089087e-09 0.0000000000000000e+00  -9.3951440705634792e-10 5.4236457202482000e-09 0.0000000000000000e+00  -1.3056102824176031e-09 5.0662111619033308e-09 0.0000000000000000e+00  -1.6514561146694619e-09 4.5783445730439916e-09 0.0000000000000000e+00  -1.953535419