<?xml version="1.0"?>
<VTKFile type="UnstructuredGrid"  version="0.1"  >
<UnstructuredGrid>
<Piece  NumberOfPoints="651" NumberOfCells="1200">
<Points>
<DataArray  type="Float64"  NumberOfComponents="3"  format="ascii">0 0 0  50000 0 0  100000 0 0  150000 0 0  200000 0 0  250000 0 0  300000 0 0  350000 0 0  400000 0 0  450000 0 0  500000 0 0  550000 0 0  600000 0 0  650000 0 0  700000 0 0  750000 0 0  800000 0 0  850000 0 0  900000 0 0  950000 0 0  1000000 0 0  0 50000 0  50000 50000 0  100000 50000 0  150000 50000 0  200000 50000 0  250000 50000 0  300000 50000 0  350000 50000 0  400000 50000 0  450000 50000 0  500000 50000 0  550000 50000 0  600000 50000 0  650000 50000 0  700000 50000 0  750000 50000 0  800000 50000 0  850000 50000 0  900000 50000 0  950000 50000 0  1000000 50000 0  0 100000 0  50000 100000 0  100000 100000 0  150000 100000 0  200000 100000 0  250000 100000 0  300000 100000 0  350000 100000 0  400000 100000 0  450000 100000 0  500000 100000 0  550000 100000 0  600000 100000 0  650000 100000 0  700000 100000 0  750000 100000 0  800000 100000 0  850000 100000 0  900000 100000 0  950000 100000 0  1000000 100000 0  0 150000 0  50000 150000 0  100000 150000 0  150000 150000 0  200000 150000 0  250000 150000 0  300000 150000 0  350000 150000 0  400000 150000 0  450000 150000 0  500000 150000 0  550000 150000 0  600000 150000 0  650000 150000 0  700000 150000 0  750000 150000 0  800000 150000 0  850000 150000 0  900000 150000 0  950000 150000 0  1000000 150000 0  0 200000 0  50000 200000 0  100000 200000 0  150000 200000 0  200000 200000 0  250000 200000 0  300000 200000 0  350000 200000 0  400000 200000 0  450000 200000 0  500000 200000 0  550000 200000 0  600000 200000 0  650000 200000 0  700000 200000 0  750000 200000 0  800000 200000 0  850000 200000 0  900000 200000 0  950000 200000 0  1000000 200000 0  0 250000 0  50000 250000 0  100000 250000 0  150000 250000 0  200000 250000 0  250000 250000 0  300000 250000 0  350000 250000 0  400000 250000 0  450000 250000 0  500000 250000 0  550000 250000 0  600000 250000 0  650000 250000 0  700000 250000 0  750000 250000 0  800000 250000 0  850000 250000 0  900000 250000 0  950000 250000 0  1000000 250000 0  0 300000 0  50000 300000 0  100000 300000 0  150000 300000 0  200000 300000 0  250000 300000 0  300000 300000 0  350000 300000 0  400000 300000 0  450000 300000 0  500000 300000 0  550000 300000 0  600000 300000 0  650000 300000 0  700000 300000 0  750000 300000 0  800000 300000 0  850000 300000 0  900000 300000 0  950000 300000 0  1000000 300000 0  0 350000 0  50000 350000 0  100000 350000 0  150000 350000 0  200000 350000 0  250000 350000 0  300000 350000 0  350000 350000 0  400000 350000 0  450000 350000 0  500000 350000 0  550000 350000 0  600000 350000 0  650000 350000 0  700000 350000 0  750000 350000 0  800000 350000 0  850000 350000 0  900000 350000 0  950000 350000 0  1000000 350000 0  0 400000 0  50000 400000 0  100000 400000 0  150000 400000 0  200000 400000 0  250000 400000 0  300000 400000 0  350000 400000 0  400000 400000 0  450000 400000 0  500000 400000 0  550000 400000 0  600000 400000 0  650000 400000 0  700000 400000 0  750000 400000 0  800000 400000 0  850000 400000 0  900000 400000 0  950000 400000 0  1000000 400000 0  0 450000 0  50000 450000 0  100000 450000 0  150000 450000 0  200000 450000 0  250000 450000 0  300000 450000 0  350000 450000 0  400000 450000 0  450000 450000 0  500000 450000 0  550000 450000 0  600000 450000 0  650000 450000 0  700000 450000 0  750000 450000 0  800000 450000 0  850000 450000 0  900000 450000 0  950000 450000 0  1000000 450000 0  0 500000 0  50000 500000 0  100000 500000 0  150000 500000 0  200000 500000 0  250000 500000 0  300000 500000 0  350000 500000 0  400000 500000 0  450000 500000 0  500000 500000 0  550000 500000 0  600000 500000 0  650000 500000 0  700000 500000 0  750000 500000 0  800000 500000 0  850000 500000 0  900000 500000 0  950000 500000 0  1000000 500000 0  0 550000 0  50000 550000 0  100000 550000 0  150000 550000 0  200000 550000 0  250000 550000 0  300000 550000 0  350000 550000 0  400000 550000 0  450000 550000 0  500000 550000 0  550000 550000 0  600000 550000 0  650000 550000 0  700000 550000 0  750000 550000 0  800000 550000 0  850000 550000 0  900000 550000 0  950000 550000 0  1000000 550000 0  0 600000 0  50000 600000 0  100000 600000 0  150000 600000 0  200000 600000 0  250000 600000 0  300000 600000 0  350000 600000 0  400000 600000 0  450000 600000 0  500000 600000 0  550000 600000 0  600000 600000 0  650000 600000 0  700000 600000 0  750000 600000 0  800000 600000 0  850000 600000 0  900000 600000 0  950000 600000 0  1000000 600000 0  0 650000 0  50000 650000 0  100000 650000 0  150000 650000 0  200000 650000 0  250000 650000 0  300000 650000 0  350000 650000 0  400000 650000 0  450000 650000 0  500000 650000 0  550000 650000 0  600000 650000 0  650000 650000 0  700000 650000 0  750000 650000 0  800000 650000 0  850000 650000 0  900000 650000 0  950000 650000 0  1000000 650000 0  0 700000 0  50000 700000 0  100000 700000 0  150000 700000 0  200000 700000 0  250000 700000 0  300000 700000 0  350000 700000 0  400000 700000 0  450000 700000 0  500000 700000 0  550000 700000 0  600000 700000 0  650000 700000 0  700000 700000 0  750000 700000 0  800000 700000 0  850000 700000 0  900000 700000 0  950000 700000 0  1000000 700000 0  0 750000 0  50000 750000 0  100000 750000 0  150000 750000 0  200000 750000 0  250000 750000 0  300000 750000 0  350000 750000 0  400000 750000 0  450000 750000 0  500000 750000 0  550000 750000 0  600000 750000 0  650000 750000 0  700000 750000 0  750000 750000 0  800000 750000 0  850000 750000 0  900000 750000 0  950000 750000 0  1000000 750000 0  0 800000 0  50000 800000 0  100000 800000 0  150000 800000 0  200000 800000 0  250000 800000 0  300000 800000 0  350000 800000 0  400000 800000 0  450000 800000 0  500000 800000 0  550000 800000 0  600000 800000 0  650000 800000 0  700000 800000 0  750000 800000 0  800000 800000 0  850000 800000 0  900000 800000 0  950000 800000 0  1000000 800000 0  0 850000 0  50000 850000 0  100000 850000 0  150000 850000 0  200000 850000 0  250000 850000 0  300000 850000 0  350000 850000 0  400000 850000 0  450000 850000 0  500000 850000 0  550000 850000 0  600000 850000 0  650000 850000 0  700000 850000 0  750000 850000 0  800000 850000 0  850000 850000 0  900000 850000 0  950000 850000 0  1000000 850000 0  0 900000 0  50000 900000 0  100000 900000 0  150000 900000 0  200000 900000 0  250000 900000 0  300000 900000 0  350000 900000 0  400000 900000 0  450000 900000 0  500000 900000 0  550000 900000 0  600000 900000 0  650000 900000 0  700000 900000 0  750000 900000 0  800000 900000 0  850000 900000 0  900000 900000 0  950000 900000 0  1000000 900000 0  0 950000 0  50000 950000 0  100000 950000 0  150000 950000 0  200000 950000 0  250000 950000 0  300000 950000 0  350000 950000 0  400000 950000 0  450000 950000 0  500000 950000 0  550000 950000 0  600000 950000 0  650000 950000 0  700000 950000 0  750000 950000 0  800000 950000 0  850000 950000 0  900000 950000 0  950000 950000 0  1000000 950000 0  0 1000000 0  50000 1000000 0  100000 1000000 0  150000 1000000 0  200000 1000000 0  250000 1000000 0  300000 1000000 0  350000 1000000 0  400000 1000000 0  450000 1000000 0  500000 1000000 0  550000 1000000 0  600000 1000000 0  650000 1000000 0  700000 1000000 0  750000 1000000 0  800000 1000000 0  850000 1000000 0  900000 1000000 0  950000 1000000 0  1000000 1000000 0  0 1050000 0  50000 1050000 0  100000 1050000 0  150000 1050000 0  200000 1050000 0  250000 1050000 0  300000 1050000 0  350000 1050000 0  400000 1050000 0  450000 1050000 0  500000 1050000 0  550000 1050000 0  600000 1050000 0  650000 1050000 0  700000 1050000 0  750000 1050000 0  800000 1050000 0  850000 1050000 0  900000 1050000 0  950000 1050000 0  1000000 1050000 0  0 1100000 0  50000 1100000 0  100000 1100000 0  150000 1100000 0  200000 1100000 0  250000 1100000 0  300000 1100000 0  350000 1100000 0  400000 1100000 0  450000 1100000 0  500000 1100000 0  550000 1100000 0  600000 1100000 0  650000 1100000 0  700000 1100000 0  750000 1100000 0  800000 1100000 0  850000 1100000 0  900000 1100000 0  950000 1100000 0  1000000 1100000 0  0 1150000 0  50000 1150000 0  100000 1150000 0  150000 1150000 0  200000 1150000 0  250000 1150000 0  300000 1150000 0  350000 1150000 0  400000 1150000 0  450000 1150000 0  500000 1150000 0  550000 1150000 0  600000 1150000 0  650000 1150000 0  700000 1150000 0  750000 1150000 0  800000 1150000 0  850000 1150000 0  900000 1150000 0  950000 1150000 0  1000000 1150000 0  0 1200000 0  50000 1200000 0  100000 1200000 0  150000 1200000 0  200000 1200000 0  250000 1200000 0  300000 1200000 0  350000 1200000 0  400000 1200000 0  450000 1200000 0  500000 1200000 0  550000 1200000 0  600000 1200000 0  650000 1200000 0  700000 1200000 0  750000 1200000 0  800000 1200000 0  850000 1200000 0  900000 1200000 0  950000 1200000 0  1000000 1200000 0  0 1250000 0  50000 1250000 0  100000 1250000 0  150000 1250000 0  200000 1250000 0  250000 1250000 0  300000 1250000 0  350000 1250000 0  400000 1250000 0  450000 1250000 0  500000 1250000 0  550000 1250000 0  600000 1250000 0  650000 1250000 0  700000 1250000 0  750000 1250000 0  800000 1250000 0  850000 1250000 0  900000 1250000 0  950000 1250000 0  1000000 1250000 0  0 1300000 0  50000 1300000 0  100000 1300000 0  150000 1300000 0  200000 1300000 0  250000 1300000 0  300000 1300000 0  350000 1300000 0  400000 1300000 0  450000 1300000 0  500000 1300000 0  550000 1300000 0  600000 1300000 0  650000 1300000 0  700000 1300000 0  750000 1300000 0  800000 1300000 0  850000 1300000 0  900000 1300000 0  950000 1300000 0  1000000 1300000 0  0 1350000 0  50000 1350000 0  100000 1350000 0  150000 1350000 0  200000 1350000 0  250000 1350000 0  300000 1350000 0  350000 1350000 0  400000 1350000 0  450000 1350000 0  500000 1350000 0  550000 1350000 0  600000 1350000 0  650000 1350000 0  700000 135
[...]
<PointData  Vectors="f_15"> 
<DataArray  type="Float64"  Name="f_15"  NumberOfComponents="3" format="ascii">-3.1281139729480498e-10 3.3461304134165174e-10 0.0000000000000000e+00  -5.8548594201799698e-10 2.8103959346577032e-10 0.0000000000000000e+00  -1.0704149081017458e-09 2.5742449793317045e-10 0.0000000000000000e+00  -1.5389581644084166e-09 2.3639622424528570e-10 0.0000000000000000e+00  -1.9678910134811334e-09 2.1218826248606897e-10 0.0000000000000000e+00  -2.3446824643419004e-09 1.8419345252501941e-10 0.0000000000000000e+00  -2.6591590045612785e-09 1.5268715994589505e-10 0.0000000000000000e+00  -2.9030959207307848e-09 1.1825395377836913e-10 0.0000000000000000e+00  -3.0702054687413245e-09 8.1648924198903691e-11 0.0000000000000000e+00  -3.1562471888712287e-09 4.3727220744912581e-11 0.0000000000000000e+00  -3.1591188161470600e-09 5.3992143570337648e-12 0.0000000000000000e+00  -3.0788998550121799e-09 -3.2403754195218936e-11 0.0000000000000000e+00  -2.9178426449396452e-09 -6.8759574055428562e-11 0.0000000000000000e+00  -2.6803108894357754e-09 -1.0278484888858639e-10 0.0000000000000000e+00  -2.3726763445788715e-09 -1.3366788262337349e-10 0.0000000000000000e+00  -2.0032397023419788e-09 -1.6071908197575724e-10 0.0000000000000000e+00  -1.5825224808917606e-09 -1.8349026815722902e-10 0.0000000000000000e+00  -1.1255219293208944e-09 -2.0210606875926479e-10 0.0000000000000000e+00  -6.6241148074755359e-10 -2.1693623102270547e-10 0.0000000000000000e+00  -2.8406723943114380e-10 -2.1004444167007761e-10 0.0000000000000000e+00  -1.2466995658694477e-10 -1.2669421414830048e-10 0.0000000000000000e+00  -2.6553614668618564e-10 5.8629389835023164e-10 0.0000000000000000e+00  -4.9895219026521815e-10 5.0131037486533036e-10 0.0000000000000000e+00  -8.9129324883194997e-10 5.0488833341970724e-10 0.0000000000000000e+00  -1.3121830328426082e-09 4.8115749276010794e-10 0.0000000000000000e+00  -1.7126542480074834e-09 4.3866930921201169e-10 0.0000000000000000e+00  -2.0739225188052938e-09 3.8250653377957450e-10 0.0000000000000000e+00  -2.3836837651648036e-09 3.1552326419709541e-10 0.0000000000000000e+00  -2.6326432134539974e-09 2.4003520567712242e-10 0.0000000000000000e+00  -2.8137654021697585e-09 1.5828338630605990e-10 0.0000000000000000e+00  -2.9220993835664229e-09 7.2544501823898951e-11 0.0000000000000000e+00  -2.9547728731960996e-09 -1.4859589806928300e-11 0.0000000000000000e+00  -2.9110079143834024e-09 -1.0158855759021013e-10 0.0000000000000000e+00  -2.7921187788607746e-09 -1.8532255614781461e-10 0.0000000000000000e+00  -2.6014848434168135e-09 -2.6380104513616226e-10 0.0000000000000000e+00  -2.3445093362606785e-09 -3.3484980764507523e-10 0.0000000000000000e+00  -2.0286138335926791e-09 -3.9637434880472431e-10 0.0000000000000000e+00  -1.6634515187668230e-09 -4.4625283020590741e-10 0.0000000000000000e+00  -1.2620462024948706e-09 -4.8181824115111975e-10 0.0000000000000000e+00  -8.4581235211264692e-10 -4.9702183898594371e-10 0.0000000000000000e+00  -4.6655530175039942e-10 -4.6829686665685706e-10 0.0000000000000000e+00  -2.1564384142108152e-10 -2.7467435679017850e-10 0.0000000000000000e+00  -2.6174785910220368e-10 1.0325452787748907e-09 0.0000000000000000e+00  -5.1054722527106151e-10 8.7612724526319572e-10 0.0000000000000000e+00  -8.8824295271971716e-10 8.6735362519315487e-10 0.0000000000000000e+00  -1.2802312937870512e-09 8.2884576121445781e-10 0.0000000000000000e+00  -1.6513251830243565e-09 7.5916960587354964e-10 0.0000000000000000e+00  -1.9861996849696352e-09 6.6437895888559421e-10 0.0000000000000000e+00  -2.2737335120876615e-09 5.4954830883347573e-10 0.0000000000000000e+00  -2.5051157475623438e-09 4.1901442044502454e-10 0.0000000000000000e+00  -2.6735625635049155e-09 2.7691599450533633e-10 0.0000000000000000e+00  -2.7742883814431776e-09 1.2739261673917366e-10 0.0000000000000000e+00  -2.8045108900736616e-09 -2.5373338741467056e-11 0.0000000000000000e+00  -2.7634603432185856e-09 -1.7718131361881183e-10 0.0000000000000000e+00  -2.6523766206775214e-09 -3.2386243166594953e-10 0.0000000000000000e+00  -2.4744891626908526e-09 -4.6132866033981838e-10 0.0000000000000000e+00  -2.2349890907399708e-09 -5.8559455491690398e-10 0.0000000000000000e+00  -1.9410311015008963e-09 -6.9272513993060555e-10 0.0000000000000000e+00  -1.6018932774285578e-09 -7.7860246217904269e-10 0.0000000000000000e+00  -1.2297729194097472e-09 -8.3823467146440936e-10 0.0000000000000000e+00  -8.4301903995485591e-10 -8.6384297636024579e-10 0.0000000000000000e+00  -4.8192576951510206e-10 -8.4219816918193002e-10 0.0000000000000000e+00  -2.3081460293970358e-10 -6.2159169835529036e-10 0.0000000000000000e+00  -2.7266812401425039e-10 1.4718716124646150e-09 0.0000000000000000e+00  -5.0625186998924949e-10 1.2997867690736669e-09 0.0000000000000000e+00  -8.7657080340359950e-10 1.2628845243389109e-09 0.0000000000000000e+00  -1.2587569885172961e-09 1.1988406814177159e-09 0.0000000000000000e+00  -1.6165017613553817e-09 1.0972208423060471e-09 0.0000000000000000e+00  -1.9368344200234630e-09 9.6139922112198225e-10 0.0000000000000000e+00  -2.2107405711863329e-09 7.9691438691796692e-10 0.0000000000000000e+00  -2.4305878312056555e-09 6.0955345492254830e-10 0.0000000000000000e+00  -2.5902367180516627e-09 4.0519230198262571e-10 0.0000000000000000e+00  -2.6852610297061852e-09 1.8981799672946761e-10 0.0000000000000000e+00  -2.7130734441638837e-09 -3.0487633299853767e-11 0.0000000000000000e+00  -2.6729827973226919e-09 -2.4960486014249710e-10 0.0000000000000000e+00  -2.5662072220611811e-09 -4.6145186157070970e-10 0.0000000000000000e+00  -2.3958537841903345e-09 -6.6005802048016414e-10 0.0000000000000000e+00  -2.1668701009476053e-09 -8.3961112441009388e-10 0.0000000000000000e+00  -1.8859806965038115e-09 -9.9444802656431456e-10 0.0000000000000000e+00  -1.5616729911201768e-09 -1.1189548386673217e-09 0.0000000000000000e+00  -1.2045799725711988e-09 -1.2073915323238923e-09 0.0000000000000000e+00  -8.3001194071273053e-10 -1.2537558508177887e-09 0.0000000000000000e+00  -4.7523356981215494e-10 -1.2518995188610431e-09 0.0000000000000000e+00  -2.3449719265981514e-10 -1.0436127047333193e-09 0.0000000000000000e+00  -2.9150971426578082e-10 1.9018810870493241e-09 0.0000000000000000e+00  -5.0576831236195770e-10 1.7232969469995563e-09 0.0000000000000000e+00  -8.6986670601026496e-10 1.6628508615392826e-09 0.0000000000000000e+00  -1.2481801343832225e-09 1.5697916709430252e-09 0.0000000000000000e+00  -1.6012793695369461e-09 1.4332644003337707e-09 0.0000000000000000e+00  -1.9157257150361275e-09 1.2552261000160498e-09 0.0000000000000000e+00  -2.1832779952850822e-09 1.0411131811239253e-09 0.0000000000000000e+00  -2.3971942816524133e-09 7.9762566532867462e-10 0.0000000000000000e+00  -2.5519738610773342e-09 5.3206587844207454e-10 0.0000000000000000e+00  -2.6435963948451684e-09 2.5209300929802654e-10 0.0000000000000000e+00  -2.6697104651248387e-09 -3.4421472694219380e-11 0.0000000000000000e+00  -2.6297318479973233e-09 -3.1952085215340116e-10 0.0000000000000000e+00  -2.5248741883822002e-09 -5.9528833533794014e-10 0.0000000000000000e+00  -2.3581260762319978e-09 -8.5396735823864868e-10 0.0000000000000000e+00  -2.1341776738717424e-09 -1.0880706213066224e-09 0.0000000000000000e+00  -1.8593018823834040e-09 -1.2904788054348017e-09 0.0000000000000000e+00  -1.5412596137720441e-09 -1.4545625335712194e-09 0.0000000000000000e+00  -1.1896825391398530e-09 -1.5744497495351102e-09 0.0000000000000000e+00  -8.1923012846475788e-10 -1.6454529700753718e-09 0.0000000000000000e+00  -4.6966399842590750e-10 -1.6635145315409394e-09 0.0000000000000000e+00  -2.4585248343951358e-10 -1.4698406238682456e-09 0.0000000000000000e+00  -3.1692144001151754e-10 2.3278943784737215e-09 0.0000000000000000e+00  -5.1139545831083003e-10 2.1434072713523205e-09 0.0000000000000000e+00  -8.7154818594921522e-10 2.0635437416135517e-09 0.0000000000000000e+00  -1.2496912431189881e-09 1.9415063136076851e-09 0.0000000000000000e+00  -1.6030797388380760e-09 1.7687015306611383e-09 0.0000000000000000e+00  -1.9171130030376156e-09 1.5473091051105206e-09 0.0000000000000000e+00  -2.1834476551797856e-09 1.2830818862672048e-09 0.0000000000000000e+00  -2.3956783181360487e-09 9.8355292815224188e-10 0.0000000000000000e+00  -2.5487016747593692e-09 6.5728110091483598e-10 0.0000000000000000e+00  -2.6388154182722253e-09 3.1344807519676134e-10 0.0000000000000000e+00  -2.6638786618414831e-09 -3.8405637726628513e-11 0.0000000000000000e+00  -2.6234132727363747e-09 -3.8859019055354892e-10 0.0000000000000000e+00  -2.5186392554901612e-09 -7.2745513304250451e-10 0.0000000000000000e+00  -2.3524505867541359e-09 -1.0455715105563094e-09 0.0000000000000000e+00  -2.1293342214561178e-09 -1.3339178215345304e-09 0.0000000000000000e+00  -1.8552469678969695e-09 -1.5840900510673751e-09 0.0000000000000000e+00  -1.5375637623374668e-09 -1.7885831025724382e-09 0.0000000000000000e+00  -1.1856964476876100e-09 -1.9412228981166298e-09 0.0000000000000000e+00  -8.1505374263696153e-10 -2.0375195879494795e-09 0.0000000000000000e+00  -4.6922354454150126e-10 -2.0734344626914525e-09 0.0000000000000000e+00  -2.6392855289490476e-10 -1.8897988964018982e-09 0.0000000000000000e+00  -3.4844097298612906e-10 2.7547184767792123e-09 0.0000000000000000e+00  -5.2278054414117753e-10 2.5639222032782287e-09 0.0000000000000000e+00  -8.8137794846199349e-10 2.4664713144267351e-09 0.0000000000000000e+00  -1.2622131921058259e-09 2.3162893269542749e-09 0.0000000000000000e+00  -1.6190429354755999e-09 2.1066901311084062e-09 0.0000000000000000e+00  -1.9360436831784557e-09 1.8409826429977039e-09 0.0000000000000000e+00  -2.2044418313673184e-09 1.5257738235110122e-09 0.0000000000000000e+00  -2.4178144721055827e-09 1.1696046524290374e-09 0.0000000000000000e+00  -2.5712167789671958e-09 7.8229030521350535e-10 0.0000000000000000e+00  -2.6611362640990406e-09 3.7447066785662670e-10 0.0000000000000000e+00  -2.6855844245146107e-09 -4.2726910228972968e-11 0.0000000000000000e+00  -2.6441705815570609e-09 -4.5796487635059268e-10 0.0000000000000000e+00  -2.5381290558550428e-09 -8.5994457002043293e-10 0.0000000000000000e+00  -2.3702968153906273e-09 -1.2376488513149107e-09 0.0000000000000000e+00  -2.1450447598843911e-09 -1.5805975679847560e-09 0.0000000000000000e+00  -1.8681903032511805e-09 -1.8791396232680543e-09 0.0000000000000000e+00  -1.5470439540397872e-09 -2.1248133989626138e-09 0.0000000000000000e+00  -1.1912874463832693e-09 -2.3107931977182912e-09 0.0000000000000000e+00  -8.1760279590433122e-10 -2.4320761542771468e-09 0.0000000000000000e+00  -4.7378349214109387e-10 -2.4839783878295868e-09 0.0000000000000000e+00  -2.8782140246286444e-10 -2.3058902381615456e-09 0.0000000000000000e+00  -3.8588953211425139e-10 3.1859459278324013e-09 0.0000000000000000e+00  -5.3882670865531567e-10 2.9883857971097471e-09 0.0000000000000000e+00  -8.9752971369090580e-10 2.8741622095871124e-09 0.0000000000000000e+00  -1.2830416557889094e-09 2.6963207418324413e-09 0.0000000000000000e+00  -1.6452346580382103e-09 2.4496048881737672e-09 0.0000000000000000e+00  -1.9670916769499519e-09 2.1387107405985739e-09 0.0000000000000000e+00  -2.2393510140182816e-09 1.7714605817859337e-09 0.0000000000000000e+00  -2.4554291398682913e-09 1.3576281802828932e-09 0.0000000000000000e+00  -2.6104017980471380e-09 9.0837328853006956e-10 0.0000000000000000e+00  -2.7008528871541208e-09 4.3579860073686423e-10 0.0000000000000000e+00  -2.7248951274028841e-09 -4.7420351959345927e-11 0.0000000000000000e+00  -2.6822045715293242e-09 -5.2835528701522126e-10 0.0000000000000000e+00  -2.5740331659407248e-09 -9.9411826898006730e-10 0.0000000000000000e+00  -2.4031918851980360e-09 -1.4321505334879598e-09 0.0000000000000000e+00  -2.1740077158249310e-09 -1.8305286996766732e-09 0.0000000000000000e+00  -1.8922896496419720e-09 -2.1783083754805663e-09 0.0000000000000000e+00  -1.5654790895846916e-09 -2.4659188336406031e-09 0.0000000000000000e+00  -1.2037502911826997e-09 -2.6855909249737411e-09 0.0000000000000000e+00  -8.2523591029195972e-10 -2.8314476063767612e-09 0.0000000000000000e+00  -4.8227387547996837e-10 -2.8979820523463385e-09 0.0000000000000000e+00  -3.1716750549961042e-10 -2.7221434406312036e-09 0.0000000000000000e+00  -4.2923480172773122e-10 3.6236364025181047e-09 0.0000000000000000e+00  -5.5811852497387224e-10 3.4191557670940190e-09 0.0000000000000000e+00  -9.1737239922642260e-10 3.2884442830485182e-09 0.0000000000000000e+00  -1.3083904804721544e-09 3.0829877076273770e-09 0.0000000000000000e+00  -1.6766418292179868e-09 2.7987026578031511e-09 0.0000000000000000e+00  -2.0039241671574563e-09 2.4417184812365461e-09 0.0000000000000000e+00  -2.2805331768567297e-09 2.0212769032586041e-09 0.0000000000000000e+00  -2.4997215003551539e-09 1.5485686588640866e-09 0.0000000000000000e+00  -2.6565565742645801e-09 1.0362058030153405e-09 0.0000000000000000e+00  -2.7476906574207819e-09 4.9778920353002464e-10 0.0000000000000000e+00  -2.7713187595154580e-09 -5.2471631139485482e-11 0.0000000000000000e+00  -2.7271723988859814e-09 -6.0009681846912105e-10 0.0000000000000000e+00  -2.6165167019970929e-09 -1.1306503460783093e-09 0.0000000000000000e+00  -2.4421433646428606e-09 -1.6300535397036537e-09 0.0000000000000000e+00  -2.2083618869514043e-09 -2.0849206384330865e-09 0.0000000000000000e+00  -1.9210253207055451e-09 -2.4829332618333340e-09 0.0000000000000000e+00  -1.5877776399052162e-09 -2.8132567984231854e-09 0.0000000000000000e+00  -1.2193524188214146e-09 -3.0669679609301541e-09 0.0000000000000000e+00  -8.3540928813912089e-10 -3.2371319802854113e-09 0.0000000000000000e+00  -4.9325475767070027e-10 -3.3173876432111053e-09 0.0000000000000000e+00  -3.5182923883912650e-10 -3.1416346322978244e-09 0.0000000000000000e+00  -4.7852708963892239e-10 4.0681105005687993e-09 0.0000000000000000e+00  -5.7900130028191801e-10 3.8570886717826222e-09 0.0000000000000000e+00  -9.3769017225634856e-10 3.7098443659716828e-09 0.0000000000000000e+00  -1.3335718981001791e-09 3.4764739939363051e-09 0.0000000000000000e+00  -1.7071484216527838e-09 3.1539712943035835e-09 0.0000000000000000e+00  -2.0390197710699282e-09 2.7499335416118953e-09 0.0000000000000000e+00  -2.3191333464068414e-09 2.2751528776541769e-09 0.0000000000000000e+00  -2.5406666938607940e-09 1.7423767114161834e-09 0.0000000000000000e+00  -2.6987439681751166e-09 1.1657624466269428e-09 0.0000000000000000e+00  -2.7901297340434255e-09 5.6044148949758611e-10 0.0000000000000000e+00  -2.8131254845296575e-09 -5.7859874917469877e-11 0.0000000000000000e+00  -2.7675217174122165e-09 -6.7315429004566438e-10 0.0000000000000000e+00  -2.6545807349620413e-09 -1.2695022282060488e-09 0.0000000000000000e+00  -2.4770451708772772e-09 -1.8313242818690370e-09 0.0000000000000000e+00  -2.2391724814847376e-09 -2.3437445982768139e-09 0.0000000000000000e+00  -1.9468279536060833e-09 -2.7929837584975271e-09 0.0000000000000000e+00  -1.6078302475554334e-09 -3.1668013790999810e-09 0.0000000000000000e+00  -1.2334509616409760e-09 -3.4549560260813978e-09 0.0000000000000000e+00  -8.4492712761529840e-10 -3.6493369876675535e-09 0.0000000000000000e+00  -5.0501751133452124e-10 -3.7427253901015797e-09 0.0000000000000000e+00  -3.9178053056007613e-10 -3.5658854037871180e-09 0.0000000000000000e+00  -5.3386396487611806e-10 4.5177025033351325e-09 0.0000000000000000e+00  -5.9954930721940434e-10 4.3012544030571239e-09 0.0000000000000000e+00  -9.5466564856410424e-10 4.1372254905434777e-09 0.0000000000000000e+00  -1.3529509405853823e-09 3.8754035752794075e-09 0.0000000000000000e+00  -1.7293830156622739e-09 3.5138921867727186e-09 0.0000000000000000e+00  -2.0633579878637074e-09 3.0618392058787205e-09 0.0000000000000000e+00  -2.3446151066988008e-09 2.5317100652800510e-09 0.0000000000000000e+00  -2.5664234242226378e-09 1.9379246071931685e-09 0.0000000000000000e+00  -2.7241156006844214e-09 1.2962531626045671e-09 0.0000000000000000e+00  -2.8146863657814704e-09 6.2336222278576064e-10 0.0000000000000000e+00  -2.8366157568362800e-09 -6.3554603377481149e-11 0.0000000000000000e+00  -2.7897729150615818e-09 -7.4708128763940678e-10 0.0000000000000000e+00  -2.6753849355267574e-09 -1.4098512102247206e-09 0.0000000000000000e+00  -2.4960691214650364e-09 -2.0348270777973189e-09 0.0000000000000000e+00  -2.2559250462234959e-09 -2.6056285437722818e-09 0.0000000000000000e+00  -1.9607115519981847e-09 -3.1069341137794396e-09 0.0000000000000000e+00  -1.6183071736934135e-09 -3.5249612044383730e-09 0.0000000000000000e+00  -1.2404365915807695e-09 -3.8479942852003639e-09 0.0000000000000000e+00  -8.4994981339893873e-10 -4.0666303695239107e-09 0.0000000000000000e+00  -5.1556563063966413e-10 -4.1727765822678147e-09 0.0000000000000000e+00  -4.3706370122671700e-10 -3.9946080025651742e-09 0.0000000000000000e+00  -5.9536959636003448e-10 4.9684323820993052e-09 0.0000000000000000e+00  -6.1749358240895749e-10 4.7486109716522385e-09 0.0000000000000000e+00  -9.6375936011081349e-10 4.5674207633498743e-09 0.0000000000000000e+00  -1.3597658956975802e-09 4.2764615037218673e-09 0.0000000000000000e+00  -1.7344465712997352e-09 3.8751027134509192e-09 0.0000000000000000e+00  -2.0660228222066726e-09 3.3741994773179810e-09 0.0000000000000000e+00  -2.3442303944000443e-09 2.7880440589316091e-09 0.0000000000000000e+00  -2.5626846304966225e-09 2.1328411022327538e-09 0.0000000000000000e+00  -2.7171731702341660e-09 1.4260127460015896e-09 0.0000000000000000e+00  -2.8051204099971676e-09 6.8571627802128457e-10 0.0000000000000000e+00  -2.8253103377832679e-09 -6.9500249258002119e-11 0.0000000000000000e+00  -2.7777267757391937e-09 -8.2094085235139523e-10 0.0000000000000000e+00  -2.6635064154483541e-09 -1.5499545872354184e-09 0.0000000000000000e+00  -2.4850065638064683e-09 -2.2381421985866513e-09 0.0000000000000000e+00  -2.2459780861887559e-09 -2.8676375379246543e-09 0.0000000000000000e+00  -1.9518572653728960e-09 -3.4215070415400942e-09 0.0000000000000000e+00  -1.6103763305123904e-09 -3.8842805360981565e-09 0.0000000000000000e+00  -1.2335628722409892e-09 -4.2425867393809425e-09 0.0000000000000000e+00  -8.4589159027409406e-10 -4.4855754872245271e-09 0.0000000000000000e+00  -5.2254899853649779e-10 -4.6042319286018878e-09 0.0000000000000000e+00  -4.8776768007076330e-10 -4.4254432570978000e-09 0.0000000000000000e+00  -6.6318479698775837e-10 5.4135797136271816e-09 0.0000000000000000e+00  -6.3012986458524843e-10 5.1936028829834622e-09 0.0000000000000000e+00  -9.5953384713672908e-10 4.9948007687778035e-09 0.0000000000000000e+00  -1.3458612511710805e-09 4.6739418516328991e-09 0.0000000000000000e+00  -1.7115373700159122e-09 4.2319548973230499e-09 0.0000000000000000e+00  -2.0337019404607579e-09 3.6816581209562702e-09 0.0000000000000000e+00  -2.3023868645385887e-09 3.0393830848215965e-09 0.0000000000000000e+00  -2.5119242739580786e-09 2.3232439376180760e-09 0.0000000000000000e+00  -2.6589208859451306e-09 1.5523201916542035e-09 0.0000000000000000e+00  -2.7415291532699110e-09 7.4614334705170248e-10 0.0000000000000000e+00  -2.7590256120587018e-09 -7.5596946672459863e-11 0.0000000000000000e+00  -2.7115620141523066e-09 -8.9318610099711793e-10 0.0000000000000000e+00  -2.6000980073765423e-09 -1.6869400138991849e-09 0.0000000000000000e+00  -2.4265210462230895e-09 -2.4372812865235835e-09 0.0000000000000000e+00  -2.1939356079588227e-09 -3.1249312138902611e-09 0.0000000000000000e+00  -1.9071189990041035e-09 -3.7312884043667557e-09 0.0000000000000000e+00  -1.5733391215083443e-09 -4.2390238574337308e-09 0.0000000000000000e+00  -1.2046939247936072e-09 -4.6328704825945409e-09 0.0000000000000000e+00  -8.2725574313887078e-10 -4.9003019324152407e-09 0.0000000000000000e+00  -5.2317246975789158e-10 -5.0312845881115173e-09 0.0000000000000000e+00  -5.4401463731863682e-10 -4.8536182237013003e-09 0.0000000000000000e+00  -7.3746879857694543e-10 5.8431440877212435e-09 0.0000000000000000e+00  -6.3421239935811101e-10 5.6276585798003243e-09 0.0000000000000000e+00  -9.3543715335906047e-10 5.4107415366111288e-09 0.0000000000000000e+00  -1.3013497854224447e-09 5.0591885767258521e-09 0.0000000000000000e+00  -1.6474780716272939e-09 4.5759514732541970e-09 0.0000000000000000e+00  -1.950067628