<?xml version="1.0"?>
<VTKFile type="UnstructuredGrid"  version="0.1"  >
<UnstructuredGrid>
<Piece  NumberOfPoints="651" NumberOfCells="1200">
<Points>
<DataArray  type="Float64"  NumberOfComponents="3"  format="ascii">0 0 0  50000 0 0  100000 0 0  150000 0 0  200000 0 0  250000 0 0  300000 0 0  350000 0 0  400000 0 0  450000 0 0  500000 0 0  550000 0 0  600000 0 0  650000 0 0  700000 0 0  750000 0 0  800000 0 0  850000 0 0  900000 0 0  950000 0 0  1000000 0 0  0 50000 0  50000 50000 0  100000 50000 0  150000 50000 0  200000 50000 0  250000 50000 0  300000 50000 0  350000 50000 0  400000 50000 0  450000 50000 0  500000 50000 0  550000 50000 0  600000 50000 0  650000 50000 0  700000 50000 0  750000 50000 0  800000 50000 0  850000 50000 0  900000 50000 0  950000 50000 0  1000000 50000 0  0 100000 0  50000 100000 0  100000 100000 0  150000 100000 0  200000 100000 0  250000 100000 0  300000 100000 0  350000 100000 0  400000 100000 0  450000 100000 0  500000 100000 0  550000 100000 0  600000 100000 0  650000 100000 0  700000 100000 0  750000 100000 0  800000 100000 0  850000 100000 0  900000 100000 0  950000 100000 0  1000000 100000 0  0 150000 0  50000 150000 0  100000 150000 0  150000 150000 0  200000 150000 0  250000 150000 0  300000 150000 0  350000 150000 0  400000 150000 0  450000 150000 0  500000 150000 0  550000 150000 0  600000 150000 0  650000 150000 0  700000 150000 0  750000 150000 0  800000 150000 0  850000 150000 0  900000 150000 0  950000 150000 0  1000000 150000 0  0 200000 0  50000 200000 0  100000 200000 0  150000 200000 0  200000 200000 0  250000 200000 0  300000 200000 0  350000 200000 0  400000 200000 0  450000 200000 0  500000 200000 0  550000 200000 0  600000 200000 0  650000 200000 0  700000 200000 0  750000 200000 0  800000 200000 0  850000 200000 0  900000 200000 0  950000 200000 0  1000000 200000 0  0 250000 0  50000 250000 0  100000 250000 0  150000 250000 0  200000 250000 0  250000 250000 0  300000 250000 0  350000 250000 0  400000 250000 0  450000 250000 0  500000 250000 0  550000 250000 0  600000 250000 0  650000 250000 0  700000 250000 0  750000 250000 0  800000 250000 0  850000 250000 0  900000 250000 0  950000 250000 0  1000000 250000 0  0 300000 0  50000 300000 0  100000 300000 0  150000 300000 0  200000 300000 0  250000 300000 0  300000 300000 0  350000 300000 0  400000 300000 0  450000 300000 0  500000 300000 0  550000 300000 0  600000 300000 0  650000 300000 0  700000 300000 0  750000 300000 0  800000 300000 0  850000 300000 0  900000 300000 0  950000 300000 0  1000000 300000 0  0 350000 0  50000 350000 0  100000 350000 0  150000 350000 0  200000 350000 0  250000 350000 0  300000 350000 0  350000 350000 0  400000 350000 0  450000 350000 0  500000 350000 0  550000 350000 0  600000 350000 0  650000 350000 0  700000 350000 0  750000 350000 0  800000 350000 0  850000 350000 0  900000 350000 0  950000 350000 0  1000000 350000 0  0 400000 0  50000 400000 0  100000 400000 0  150000 400000 0  200000 400000 0  250000 400000 0  300000 400000 0  350000 400000 0  400000 400000 0  450000 400000 0  500000 400000 0  550000 400000 0  600000 400000 0  650000 400000 0  700000 400000 0  750000 400000 0  800000 400000 0  850000 400000 0  900000 400000 0  950000 400000 0  1000000 400000 0  0 450000 0  50000 450000 0  100000 450000 0  150000 450000 0  200000 450000 0  250000 450000 0  300000 450000 0  350000 450000 0  400000 450000 0  450000 450000 0  500000 450000 0  550000 450000 0  600000 450000 0  650000 450000 0  700000 450000 0  750000 450000 0  800000 450000 0  850000 450000 0  900000 450000 0  950000 450000 0  1000000 450000 0  0 500000 0  50000 500000 0  100000 500000 0  150000 500000 0  200000 500000 0  250000 500000 0  300000 500000 0  350000 500000 0  400000 500000 0  450000 500000 0  500000 500000 0  550000 500000 0  600000 500000 0  650000 500000 0  700000 500000 0  750000 500000 0  800000 500000 0  850000 500000 0  900000 500000 0  950000 500000 0  1000000 500000 0  0 550000 0  50000 550000 0  100000 550000 0  150000 550000 0  200000 550000 0  250000 550000 0  300000 550000 0  350000 550000 0  400000 550000 0  450000 550000 0  500000 550000 0  550000 550000 0  600000 550000 0  650000 550000 0  700000 550000 0  750000 550000 0  800000 550000 0  850000 550000 0  900000 550000 0  950000 550000 0  1000000 550000 0  0 600000 0  50000 600000 0  100000 600000 0  150000 600000 0  200000 600000 0  250000 600000 0  300000 600000 0  350000 600000 0  400000 600000 0  450000 600000 0  500000 600000 0  550000 600000 0  600000 600000 0  650000 600000 0  700000 600000 0  750000 600000 0  800000 600000 0  850000 600000 0  900000 600000 0  950000 600000 0  1000000 600000 0  0 650000 0  50000 650000 0  100000 650000 0  150000 650000 0  200000 650000 0  250000 650000 0  300000 650000 0  350000 650000 0  400000 650000 0  450000 650000 0  500000 650000 0  550000 650000 0  600000 650000 0  650000 650000 0  700000 650000 0  750000 650000 0  800000 650000 0  850000 650000 0  900000 650000 0  950000 650000 0  1000000 650000 0  0 700000 0  50000 700000 0  100000 700000 0  150000 700000 0  200000 700000 0  250000 700000 0  300000 700000 0  350000 700000 0  400000 700000 0  450000 700000 0  500000 700000 0  550000 700000 0  600000 700000 0  650000 700000 0  700000 700000 0  750000 700000 0  800000 700000 0  850000 700000 0  900000 700000 0  950000 700000 0  1000000 700000 0  0 750000 0  50000 750000 0  100000 750000 0  150000 750000 0  200000 750000 0  250000 750000 0  300000 750000 0  350000 750000 0  400000 750000 0  450000 750000 0  500000 750000 0  550000 750000 0  600000 750000 0  650000 750000 0  700000 750000 0  750000 750000 0  800000 750000 0  850000 750000 0  900000 750000 0  950000 750000 0  1000000 750000 0  0 800000 0  50000 800000 0  100000 800000 0  150000 800000 0  200000 800000 0  250000 800000 0  300000 800000 0  350000 800000 0  400000 800000 0  450000 800000 0  500000 800000 0  550000 800000 0  600000 800000 0  650000 800000 0  700000 800000 0  750000 800000 0  800000 800000 0  850000 800000 0  900000 800000 0  950000 800000 0  1000000 800000 0  0 850000 0  50000 850000 0  100000 850000 0  150000 850000 0  200000 850000 0  250000 850000 0  300000 850000 0  350000 850000 0  400000 850000 0  450000 850000 0  500000 850000 0  550000 850000 0  600000 850000 0  650000 850000 0  700000 850000 0  750000 850000 0  800000 850000 0  850000 850000 0  900000 850000 0  950000 850000 0  1000000 850000 0  0 900000 0  50000 900000 0  100000 900000 0  150000 900000 0  200000 900000 0  250000 900000 0  300000 900000 0  350000 900000 0  400000 900000 0  450000 900000 0  500000 900000 0  550000 900000 0  600000 900000 0  650000 900000 0  700000 900000 0  750000 900000 0  800000 900000 0  850000 900000 0  900000 900000 0  950000 900000 0  1000000 900000 0  0 950000 0  50000 950000 0  100000 950000 0  150000 950000 0  200000 950000 0  250000 950000 0  300000 950000 0  350000 950000 0  400000 950000 0  450000 950000 0  500000 950000 0  550000 950000 0  600000 950000 0  650000 950000 0  700000 950000 0  750000 950000 0  800000 950000 0  850000 950000 0  900000 950000 0  950000 950000 0  1000000 950000 0  0 1000000 0  50000 1000000 0  100000 1000000 0  150000 1000000 0  200000 1000000 0  250000 1000000 0  300000 1000000 0  350000 1000000 0  400000 1000000 0  450000 1000000 0  500000 1000000 0  550000 1000000 0  600000 1000000 0  650000 1000000 0  700000 1000000 0  750000 1000000 0  800000 1000000 0  850000 1000000 0  900000 1000000 0  950000 1000000 0  1000000 1000000 0  0 1050000 0  50000 1050000 0  100000 1050000 0  150000 1050000 0  200000 1050000 0  250000 1050000 0  300000 1050000 0  350000 1050000 0  400000 1050000 0  450000 1050000 0  500000 1050000 0  550000 1050000 0  600000 1050000 0  650000 1050000 0  700000 1050000 0  750000 1050000 0  800000 1050000 0  850000 1050000 0  900000 1050000 0  950000 1050000 0  1000000 1050000 0  0 1100000 0  50000 1100000 0  100000 1100000 0  150000 1100000 0  200000 1100000 0  250000 1100000 0  300000 1100000 0  350000 1100000 0  400000 1100000 0  450000 1100000 0  500000 1100000 0  550000 1100000 0  600000 1100000 0  650000 1100000 0  700000 1100000 0  750000 1100000 0  800000 1100000 0  850000 1100000 0  900000 1100000 0  950000 1100000 0  1000000 1100000 0  0 1150000 0  50000 1150000 0  100000 1150000 0  150000 1150000 0  200000 1150000 0  250000 1150000 0  300000 1150000 0  350000 1150000 0  400000 1150000 0  450000 1150000 0  500000 1150000 0  550000 1150000 0  600000 1150000 0  650000 1150000 0  700000 1150000 0  750000 1150000 0  800000 1150000 0  850000 1150000 0  900000 1150000 0  950000 1150000 0  1000000 1150000 0  0 1200000 0  50000 1200000 0  100000 1200000 0  150000 1200000 0  200000 1200000 0  250000 1200000 0  300000 1200000 0  350000 1200000 0  400000 1200000 0  450000 1200000 0  500000 1200000 0  550000 1200000 0  600000 1200000 0  650000 1200000 0  700000 1200000 0  750000 1200000 0  800000 1200000 0  850000 1200000 0  900000 1200000 0  950000 1200000 0  1000000 1200000 0  0 1250000 0  50000 1250000 0  100000 1250000 0  150000 1250000 0  200000 1250000 0  250000 1250000 0  300000 1250000 0  350000 1250000 0  400000 1250000 0  450000 1250000 0  500000 1250000 0  550000 1250000 0  600000 1250000 0  650000 1250000 0  700000 1250000 0  750000 1250000 0  800000 1250000 0  850000 1250000 0  900000 1250000 0  950000 1250000 0  1000000 1250000 0  0 1300000 0  50000 1300000 0  100000 1300000 0  150000 1300000 0  200000 1300000 0  250000 1300000 0  300000 1300000 0  350000 1300000 0  400000 1300000 0  450000 1300000 0  500000 1300000 0  550000 1300000 0  600000 1300000 0  650000 1300000 0  700000 1300000 0  750000 1300000 0  800000 1300000 0  850000 1300000 0  900000 1300000 0  950000 1300000 0  1000000 1300000 0  0 1350000 0  50000 1350000 0  100000 1350000 0  150000 1350000 0  200000 1350000 0  250000 1350000 0  300000 1350000 0  350000 1350000 0  400000 1350000 0  450000 1350000 0  500000 1350000 0  550000 1350000 0  600000 1350000 0  650000 1350000 0  700000 135
[...]
<PointData  Vectors="f_15"> 
<DataArray  type="Float64"  Name="f_15"  NumberOfComponents="3" format="ascii">-3.2875468476555738e-10 2.7000902149557492e-10 0.0000000000000000e+00  -6.0269664294108060e-10 2.1818043553471438e-10 0.0000000000000000e+00  -1.0891318186738129e-09 1.9767300881030518e-10 0.0000000000000000e+00  -1.5590537519664735e-09 1.7982353010646392e-10 0.0000000000000000e+00  -1.9893227450754430e-09 1.5867307235134874e-10 0.0000000000000000e+00  -2.3674163529890185e-09 1.3364242196876797e-10 0.0000000000000000e+00  -2.6831528130400348e-09 1.0502461426152052e-10 0.0000000000000000e+00  -2.9282951434437483e-09 7.3407234469199902e-11 0.0000000000000000e+00  -3.0965448378406758e-09 3.9540853742602986e-11 0.0000000000000000e+00  -3.1836537817682559e-09 4.2710486642647689e-12 0.0000000000000000e+00  -3.1875159998767990e-09 -3.1505983381685314e-11 0.0000000000000000e+00  -3.1082121671037296e-09 -6.6877818430368954e-11 0.0000000000000000e+00  -2.9480019469121782e-09 -1.0094625503301321e-10 0.0000000000000000e+00  -2.7112642571481397e-09 -1.3285699098807135e-10 0.0000000000000000e+00  -2.4043962776198499e-09 -1.6183271755194041e-10 0.0000000000000000e+00  -2.0357374825795327e-09 -1.8722369845378932e-10 0.0000000000000000e+00  -1.6158663719448851e-09 -2.0862806548967499e-10 0.0000000000000000e+00  -1.1598615511120801e-09 -2.2622762919594078e-10 0.0000000000000000e+00  -6.9797263513445156e-10 -2.4046332315348321e-10 0.0000000000000000e+00  -3.2092030778920585e-10 -2.3337428265210667e-10 0.0000000000000000e+00  -1.6218702062605919e-10 -1.5073623475031423e-10 0.0000000000000000e+00  -2.7941390859183690e-10 5.2205718701861789e-10 0.0000000000000000e+00  -4.9476086025645014e-10 4.8080422569730843e-10 0.0000000000000000e+00  -8.7472008230345512e-10 4.9885839684782911e-10 0.0000000000000000e+00  -1.3023114299875997e-09 4.7433305168721301e-10 0.0000000000000000e+00  -1.7101530720578018e-09 4.3131040587272319e-10 0.0000000000000000e+00  -2.0766919562229600e-09 3.7495272065128815e-10 0.0000000000000000e+00  -2.3903524608453500e-09 3.0797840502368966e-10 0.0000000000000000e+00  -2.6422882225644339e-09 2.3261354439887548e-10 0.0000000000000000e+00  -2.8256795525061955e-09 1.5103801998906110e-10 0.0000000000000000e+00  -2.9357093669595863e-09 6.5492406983065052e-11 0.0000000000000000e+00  -2.9695937037377821e-09 -2.1723572751812107e-11 0.0000000000000000e+00  -2.9266110824784651e-09 -1.0828617141466700e-10 0.0000000000000000e+00  -2.8081076016115234e-09 -1.9189220714829527e-10 0.0000000000000000e+00  -2.6174707749206791e-09 -2.7030355334471394e-10 0.0000000000000000e+00  -2.3600819552277114e-09 -3.4138344757179738e-10 0.0000000000000000e+00  -2.0432938214504512e-09 -4.0310956147700261e-10 0.0000000000000000e+00  -1.6766160978317116e-09 -4.5351034743178941e-10 0.0000000000000000e+00  -1.2728931936739211e-09 -4.9021476300323712e-10 0.0000000000000000e+00  -8.5381318179712306e-10 -5.0767655990045670e-10 0.0000000000000000e+00  -4.7322864321375361e-10 -4.8480570023965250e-10 0.0000000000000000e+00  -2.5266512103160320e-10 -2.9761643225603293e-10 0.0000000000000000e+00  -2.7226102544338971e-10 9.6977324510160273e-10 0.0000000000000000e+00  -5.0460808445103779e-10 8.6155935812850191e-10 0.0000000000000000e+00  -8.6545354685678247e-10 8.7682559311501119e-10 0.0000000000000000e+00  -1.2559550348102933e-09 8.3920861384935586e-10 0.0000000000000000e+00  -1.6315282004894344e-09 7.6774370409079103e-10 0.0000000000000000e+00  -1.9721013947479861e-09 6.7109232562830367e-10 0.0000000000000000e+00  -2.2647913268871985e-09 5.5468391222133195e-10 0.0000000000000000e+00  -2.5004848653729572e-09 4.2285510245477594e-10 0.0000000000000000e+00  -2.6724350522675151e-09 2.7967074003157965e-10 0.0000000000000000e+00  -2.7759413824393401e-09 1.2920041776709716e-10 0.0000000000000000e+00  -2.8083034396269117e-09 -2.4427269633085742e-11 0.0000000000000000e+00  -2.7688175703078300e-09 -1.7705539015639692e-10 0.0000000000000000e+00  -2.6587686054222515e-09 -3.2455741850564559e-10 0.0000000000000000e+00  -2.4814057343666470e-09 -4.6289710173830225e-10 0.0000000000000000e+00  -2.2419097375062844e-09 -5.8816594786200612e-10 0.0000000000000000e+00  -1.9473919602163188e-09 -6.9655649737295155e-10 0.0000000000000000e+00  -1.6070724372724828e-09 -7.8416394939017384e-10 0.0000000000000000e+00  -1.2331847016669467e-09 -8.4631531910233736e-10 0.0000000000000000e+00  -8.4467730984387218e-10 -8.7562514547142428e-10 0.0000000000000000e+00  -4.8526099091393046e-10 -8.5807514543123757e-10 0.0000000000000000e+00  -2.6737146440908703e-10 -6.4209673361029327e-10 0.0000000000000000e+00  -2.7954490180608301e-10 1.4108518402645738e-09 0.0000000000000000e+00  -5.0431849123532793e-10 1.2746917488276671e-09 0.0000000000000000e+00  -8.6014716238946902e-10 1.2692388365216218e-09 0.0000000000000000e+00  -1.2363315063977990e-09 1.2126717971045015e-09 0.0000000000000000e+00  -1.5936816869009708e-09 1.1114701969057270e-09 0.0000000000000000e+00  -1.9166472964713112e-09 9.7409781297305064e-10 0.0000000000000000e+00  -2.1942085591719035e-09 8.0762865070144028e-10 0.0000000000000000e+00  -2.4177408166880138e-09 6.1831735775594235e-10 0.0000000000000000e+00  -2.5806967678216574e-09 4.1216165572693158e-10 0.0000000000000000e+00  -2.6785084059922866e-09 1.9515367696507986e-10 0.0000000000000000e+00  -2.7085556402075620e-09 -2.6656721499555099e-11 0.0000000000000000e+00  -2.6701563351412966e-09 -2.4719454686835883e-10 0.0000000000000000e+00  -2.5645498408829726e-09 -4.6043215078750990e-10 0.0000000000000000e+00  -2.3948633615010568e-09 -6.6046787076717219e-10 0.0000000000000000e+00  -2.1660607784225149e-09 -8.4158321206089540e-10 0.0000000000000000e+00  -1.8848903219957853e-09 -9.9824379796862994e-10 0.0000000000000000e+00  -1.5599127904226631e-09 -1.1249951592171245e-09 0.0000000000000000e+00  -1.2020104654383687e-09 -1.2162233757382781e-09 0.0000000000000000e+00  -8.2741426942697025e-10 -1.2657829781446457e-09 0.0000000000000000e+00  -4.7679761671595420e-10 -1.2655946494136115e-09 0.0000000000000000e+00  -2.7011979695146787e-10 -1.0611713573937394e-09 0.0000000000000000e+00  -2.9458847549583346e-10 1.8428662498724375e-09 0.0000000000000000e+00  -5.0583448246591329e-10 1.6901861145280038e-09 0.0000000000000000e+00  -8.5895038211244574e-10 1.6620364866074464e-09 0.0000000000000000e+00  -1.2308972060672609e-09 1.5812778337274752e-09 0.0000000000000000e+00  -1.5809557439668606e-09 1.4486074518117404e-09 0.0000000000000000e+00  -1.8952416351016639e-09 1.2706738791524118e-09 0.0000000000000000e+00  -2.1643208945316150e-09 1.0551269002491144e-09 0.0000000000000000e+00  -2.3804907873543938e-09 8.0965334592226875e-10 0.0000000000000000e+00  -2.5376665212532793e-09 5.4197805785526736e-10 0.0000000000000000e+00  -2.6315142648537288e-09 2.5992714319684977e-10 0.0000000000000000e+00  -2.6595305295997603e-09 -2.8577403894792986e-11 0.0000000000000000e+00  -2.6210683226943476e-09 -3.1558412250142825e-10 0.0000000000000000e+00  -2.5173271416815896e-09 -5.9321248632618421e-10 0.0000000000000000e+00  -2.3513106530355895e-09 -8.5376430181744390e-10 0.0000000000000000e+00  -2.1277499138109390e-09 -1.0898287120933964e-09 0.0000000000000000e+00  -1.8529977724859688e-09 -1.2943710483653710e-09 0.0000000000000000e+00  -1.5349715527422061e-09 -1.4608206674871066e-09 0.0000000000000000e+00  -1.1836307173697041e-09 -1.5832440405500685e-09 0.0000000000000000e+00  -8.1452263077137873e-10 -1.6565627203263755e-09 0.0000000000000000e+00  -4.7019874539922320e-10 -1.6746399248516763e-09 0.0000000000000000e+00  -2.8020988762163166e-10 -1.4843039831898190e-09 0.0000000000000000e+00  -3.1601988750895813e-10 2.2711629481638501e-09 0.0000000000000000e+00  -5.1245565349899029e-10 2.1058382293344220e-09 0.0000000000000000e+00  -8.6465871338768452e-10 2.0562512207059452e-09 0.0000000000000000e+00  -1.2374575807221841e-09 1.9487066213191966e-09 0.0000000000000000e+00  -1.5869955945437635e-09 1.7824683149131224e-09 0.0000000000000000e+00  -1.8991877355045978e-09 1.5631216694306287e-09 0.0000000000000000e+00  -2.1652871726872456e-09 1.2985468414485730e-09 0.0000000000000000e+00  -2.3782787631062316e-09 9.9749123911605120e-10 0.0000000000000000e+00  -2.5325504550332373e-09 6.6917001961007664e-10 0.0000000000000000e+00  -2.6240543723066317e-09 3.2310157917392963e-10 0.0000000000000000e+00  -2.6504418751779365e-09 -3.1013241372666833e-11 0.0000000000000000e+00  -2.6111253280608367e-09 -3.8342138083777974e-10 0.0000000000000000e+00  -2.5072826307545872e-09 -7.2446394779593643e-10 0.0000000000000000e+00  -2.3418152920126305e-09 -1.0447345598143402e-09 0.0000000000000000e+00  -2.1192624068529340e-09 -1.3352474318923943e-09 0.0000000000000000e+00  -1.8456843900642129e-09 -1.5876240111413010e-09 0.0000000000000000e+00  -1.5286309476767628e-09 -1.7943319444841882e-09 0.0000000000000000e+00  -1.1778151818102815e-09 -1.9490367718214170e-09 0.0000000000000000e+00  -8.0938841175912880e-10 -2.0468108579369524e-09 0.0000000000000000e+00  -4.6916704549535940e-10 -2.0814650640652508e-09 0.0000000000000000e+00  -2.9673108200696973e-10 -1.9011281812377833e-09 0.0000000000000000e+00  -3.4338041254845018e-10 2.7006055782195405e-09 0.0000000000000000e+00  -5.2434101964827046e-10 2.5241584066740199e-09 0.0000000000000000e+00  -8.7750737560300556e-10 2.4544644199724256e-09 0.0000000000000000e+00  -1.2543320416810371e-09 2.3191817089391035e-09 0.0000000000000000e+00  -1.6074490176765136e-09 2.1177007718070399e-09 0.0000000000000000e+00  -1.9218573167969692e-09 1.8555957950185347e-09 0.0000000000000000e+00  -2.1888631811493757e-09 1.5411830623320588e-09 0.0000000000000000e+00  -2.4017873278964745e-09 1.1841805773113766e-09 0.0000000000000000e+00  -2.5553586050152235e-09 7.9515407941856717e-10 0.0000000000000000e+00  -2.6457872327273295e-09 3.8519477043943111e-10 0.0000000000000000e+00  -2.6708887856306284e-09 -3.4312565991602602e-11 0.0000000000000000e+00  -2.6301545582799492e-09 -4.5189312802619342e-10 0.0000000000000000e+00  -2.5247660411959782e-09 -8.5618296526357077e-10 0.0000000000000000e+00  -2.3575618875787487e-09 -1.2361390367789197e-09 0.0000000000000000e+00  -2.1329639295231035e-09 -1.5812684231684232e-09 0.0000000000000000e+00  -1.8568894773833702e-09 -1.8818920526339799e-09 0.0000000000000000e+00  -1.5368021783842343e-09 -2.1294670246438929e-09 0.0000000000000000e+00  -1.1826213741090492e-09 -2.3169745328634228e-09 0.0000000000000000e+00  -8.1163138039189477e-10 -2.4389975870453036e-09 0.0000000000000000e+00  -4.7337088397490702e-10 -2.4886183998821308e-09 0.0000000000000000e+00  -3.1882501984783544e-10 -2.3140960916014203e-09 0.0000000000000000e+00  -3.7652220404926110e-10 3.1348571370699370e-09 0.0000000000000000e+00  -5.4065220292172173e-10 2.9480104774053918e-09 0.0000000000000000e+00  -8.9606820007602982e-10 2.8590733719706462e-09 0.0000000000000000e+00  -1.2788728040396554e-09 2.6956061657060158e-09 0.0000000000000000e+00  -1.6378939509974618e-09 2.4576061219081198e-09 0.0000000000000000e+00  -1.9569931365682901e-09 2.1512899311276645e-09 0.0000000000000000e+00  -2.2272260292758888e-09 1.7857568414071606e-09 0.0000000000000000e+00  -2.4420080614192359e-09 1.3717907583183016e-09 0.0000000000000000e+00  -2.5962745856031601e-09 9.2128416856892131e-10 0.0000000000000000e+00  -2.6864413350493644e-09 4.4683625823969815e-10 0.0000000000000000e+00  -2.7104793233920781e-09 -3.8557827876034216e-11 0.0000000000000000e+00  -2.6679689823346278e-09 -5.2177231643936967e-10 0.0000000000000000e+00  -2.5601159709608390e-09 -9.8980042480511290e-10 0.0000000000000000e+00  -2.3897317968195521e-09 -1.4300094494256682e-09 0.0000000000000000e+00  -2.1611870832111775e-09 -1.8304187029815673e-09 0.0000000000000000e+00  -1.8803732691397732e-09 -2.1800158704513926e-09 0.0000000000000000e+00  -1.5548491342531980e-09 -2.4691216988317443e-09 0.0000000000000000e+00  -1.1949623587899619e-09 -2.6897758078682653e-09 0.0000000000000000e+00  -8.1933538221157550e-10 -2.8357304053293545e-09 0.0000000000000000e+00  -4.8162185448226127e-10 -2.8991521397074472e-09 0.0000000000000000e+00  -3.4617595556564824e-10 -2.7272682123262175e-09 0.0000000000000000e+00  -4.1546777423837973e-10 3.5760514541179834e-09 0.0000000000000000e+00  -5.6011583788840539e-10 3.3794205760000544e-09 0.0000000000000000e+00  -9.1797828014930420e-10 3.2716283576813502e-09 0.0000000000000000e+00  -1.3074612408410186e-09 3.0795478640388663e-09 0.0000000000000000e+00  -1.6732107451512861e-09 2.8039123552719025e-09 0.0000000000000000e+00  -1.9978860671345327e-09 2.4519413780991440e-09 0.0000000000000000e+00  -2.2721993116581858e-09 2.0338162430626202e-09 0.0000000000000000e+00  -2.4895600791155981e-09 1.5615453896671750e-09 0.0000000000000000e+00  -2.6450433116798196e-09 1.0483957089749627e-09 0.0000000000000000e+00  -2.7352424746908670e-09 5.0845539081411970e-10 0.0000000000000000e+00  -2.7582806634580639e-09 -4.3721976128008276e-11 0.0000000000000000e+00  -2.7138331171188912e-09 -5.9342163757548944e-10 0.0000000000000000e+00  -2.6031372169330854e-09 -1.1260485459915533e-09 0.0000000000000000e+00  -2.4289893935732199e-09 -1.6274114547432264e-09 0.0000000000000000e+00  -2.1957351951307958e-09 -2.0840329169124392e-09 0.0000000000000000e+00  -1.9092900932624730e-09 -2.4835007378756856e-09 0.0000000000000000e+00  -1.5773808469974895e-09 -2.8148621916003707e-09 0.0000000000000000e+00  -1.2108627310150727e-09 -3.0690195265970484e-09 0.0000000000000000e+00  -8.2979914988779616e-10 -3.2387108448258237e-09 0.0000000000000000e+00  -4.9242110737108128e-10 -3.3151488418001327e-09 0.0000000000000000e+00  -3.7869224251959102e-10 -3.1437409243797453e-09 0.0000000000000000e+00  -4.6034556029381697e-10 4.0245805519190259e-09 0.0000000000000000e+00  -5.8115465782411989e-10 3.8190574250001330e-09 0.0000000000000000e+00  -9.4018145201612370e-10 3.6924266395664529e-09 0.0000000000000000e+00  -1.3355521751726298e-09 3.4711675110336399e-09 0.0000000000000000e+00  -1.7072959647909334e-09 3.1568047187007032e-09 0.0000000000000000e+00  -2.0368546566752883e-09 2.7577831965545609e-09 0.0000000000000000e+00  -2.3146259008253838e-09 2.2855996388946994e-09 0.0000000000000000e+00  -2.5340336593727295e-09 1.7536484716231712e-09 0.0000000000000000e+00  -2.6903136911819221e-09 1.1766437368280065e-09 0.0000000000000000e+00  -2.7802627037748525e-09 5.7016239417328586e-10 0.0000000000000000e+00  -2.8021776834249028e-09 -4.9730914182840697e-11 0.0000000000000000e+00  -2.7558367190928175e-09 -6.6679990269014777e-10 0.0000000000000000e+00  -2.6424985247712282e-09 -1.2649229494971115e-09 0.0000000000000000e+00  -2.4649188381741125e-09 -1.8283828526463836e-09 0.0000000000000000e+00  -2.2273863592194579e-09 -2.3421898216892370e-09 0.0000000000000000e+00  -1.9358122708346361e-09 -2.7924566850735683e-09 0.0000000000000000e+00  -1.5980710767739953e-09 -3.1668257077279297e-09 0.0000000000000000e+00  -1.2255191483976906e-09 -3.4549020018769323e-09 0.0000000000000000e+00  -8.3973185589570389e-10 -3.6482839572536541e-09 0.0000000000000000e+00  -5.0403003819760368e-10 -3.7372249888211466e-09 0.0000000000000000e+00  -4.1639042637052198e-10 -3.5650477709759834e-09 0.0000000000000000e+00  -5.1135470654579860e-10 4.4788408921713299e-09 0.0000000000000000e+00  -6.0188468742364755e-10 4.2658740828295821e-09 0.0000000000000000e+00  -9.5894314320242739e-10 4.1201513282677105e-09 0.0000000000000000e+00  -1.3575998222096037e-09 3.8689991834795169e-09 0.0000000000000000e+00  -1.7328082930408768e-09 3.5148155941728214e-09 0.0000000000000000e+00  -2.0648070565384855e-09 3.0674551719805548e-09 0.0000000000000000e+00  -2.3437941832700714e-09 2.5399294832088980e-09 0.0000000000000000e+00  -2.5633332929092691e-09 1.9471679775042394e-09 0.0000000000000000e+00  -2.7189368147118021e-09 1.3054003826616374e-09 0.0000000000000000e+00  -2.8076996032897891e-09 6.3168156864511693e-10 0.0000000000000000e+00  -2.8281534209712084e-09 -5.6482470093897426e-11 0.0000000000000000e+00  -2.7801953478146886e-09 -7.4143195204832036e-10 0.0000000000000000e+00  -2.6650734464155547e-09 -1.4056114555741825e-09 0.0000000000000000e+00  -2.4854286528329482e-09 -2.0318342786463243e-09 0.0000000000000000e+00  -2.2453904153866107e-09 -2.6035953344576723e-09 0.0000000000000000e+00  -1.9507524800379370e-09 -3.1054606303732378e-09 0.0000000000000000e+00  -1.6094312692481778e-09 -3.5235364433565594e-09 0.0000000000000000e+00  -1.2332123272771017e-09 -3.8459737694646087e-09 0.0000000000000000e+00  -8.4523324036515314e-10 -4.0631054954128627e-09 0.0000000000000000e+00  -5.1443623755441377e-10 -4.1642131931206203e-09 0.0000000000000000e+00  -4.5935125357157874e-10 -3.9909072507823253e-09 0.0000000000000000e+00  -5.6874370700846701e-10 4.9348979286442006e-09 0.0000000000000000e+00  -6.2005711862536822e-10 4.7167436879758184e-09 0.0000000000000000e+00  -9.6975375505547897e-10 4.5514881027303666e-09 0.0000000000000000e+00  -1.3668803476881570e-09 4.2696182531894797e-09 0.0000000000000000e+00  -1.7408608771402868e-09 3.8745594781766463e-09 0.0000000000000000e+00  -2.0707829361710314e-09 3.3777831599341050e-09 0.0000000000000000e+00  -2.3468435502624653e-09 2.7940177212127047e-09 0.0000000000000000e+00  -2.5629780609984407e-09 2.1398690180927636e-09 0.0000000000000000e+00  -2.7151962995407377e-09 1.4331301155362469e-09 0.0000000000000000e+00  -2.8010698770056389e-09 6.9228448783920681e-10 0.0000000000000000e+00  -2.8194769519552371e-09 -6.3845259447900027e-11 0.0000000000000000e+00  -2.7704621125808718e-09 -8.1633842514544349e-10 0.0000000000000000e+00  -2.6552045906984412e-09 -1.5463618348303139e-09 0.0000000000000000e+00  -2.4760960215769187e-09 -2.2353668195948579e-09 0.0000000000000000e+00  -2.2369184617877531e-09 -2.8653611026610322e-09 0.0000000000000000e+00  -1.9431373098584361e-09 -3.4193003884844656e-09 0.0000000000000000e+00  -1.6025125837261145e-09 -3.8816119182241860e-09 0.0000000000000000e+00  -1.2271188280457053e-09 -4.2388075713754677e-09 0.0000000000000000e+00  -8.4167748993921279e-10 -4.4797907620256871e-09 0.0000000000000000e+00  -5.2128132951743060e-10 -4.5928320581055796e-09 0.0000000000000000e+00  -5.0769742600379383e-10 -4.4189629370828769e-09 0.0000000000000000e+00  -6.3279787270830901e-10 5.3860515586989135e-09 0.0000000000000000e+00  -6.3297213937363181e-10 5.1660318249573700e-09 0.0000000000000000e+00  -9.6716714207492524e-10 4.9806773675273051e-09 0.0000000000000000e+00  -1.3552334174805911e-09 4.6672044559114309e-09 0.0000000000000000e+00  -1.7206370531849899e-09 4.2303297517834623e-09 0.0000000000000000e+00  -2.0414257217465079e-09 3.6834171798805948e-09 0.0000000000000000e+00  -2.3080964827146103e-09 3.0431508681720588e-09 0.0000000000000000e+00  -2.5153149899153585e-09 2.3279578638858698e-09 0.0000000000000000e+00  -2.6599351480494956e-09 1.5572095317767962e-09 0.0000000000000000e+00  -2.7402868653867717e-09 7.5070136750102130e-10 0.0000000000000000e+00  -2.7557701022530600e-09 -7.1646334905759368e-11 0.0000000000000000e+00  -2.7066214374575104e-09 -8.8992227284580255e-10 0.0000000000000000e+00  -2.5938598993604690e-09 -1.6842762616326140e-09 0.0000000000000000e+00  -2.4194165865081751e-09 -2.4349902236142100e-09 0.0000000000000000e+00  -2.1864299094051240e-09 -3.1226648478290938e-09 0.0000000000000000e+00  -1.8997043574081933e-09 -3.7285939351104548e-09 0.0000000000000000e+00  -1.5665313632580589e-09 -4.2353548444780021e-09 0.0000000000000000e+00  -1.1990488684237209e-09 -4.6275761240836694e-09 0.0000000000000000e+00  -8.2354149202330554e-10 -4.8924949072518732e-09 0.0000000000000000e+00  -5.2176661431198928e-10 -5.0172866016161297e-09 0.0000000000000000e+00  -5.6158007454681397e-10 -4.8444430014131645e-09 0.0000000000000000e+00  -7.0383581511570147e-10 5.8222874190444503e-09 0.0000000000000000e+00  -6.3737494441568152e-10 5.6050761093384248e-09 0.0000000000000000e+00  -9.4459282930019976e-10 5.3989707302339765e-09 0.0000000000000000e+00  -1.3127330406410949e-09 5.0529875008682592e-09 0.0000000000000000e+00  -1.6589184439754641e-09 4.5735548626506402e-09 0.0000000000000000e+00  -1.96035412