<?xml version="1.0"?>
<VTKFile type="UnstructuredGrid"  version="0.1"  >
<UnstructuredGrid>
<Piece  NumberOfPoints="651" NumberOfCells="1200">
<Points>
<DataArray  type="Float64"  NumberOfComponents="3"  format="ascii">0 0 0  50000 0 0  100000 0 0  150000 0 0  200000 0 0  250000 0 0  300000 0 0  350000 0 0  400000 0 0  450000 0 0  500000 0 0  550000 0 0  600000 0 0  650000 0 0  700000 0 0  750000 0 0  800000 0 0  850000 0 0  900000 0 0  950000 0 0  1000000 0 0  0 50000 0  50000 50000 0  100000 50000 0  150000 50000 0  200000 50000 0  250000 50000 0  300000 50000 0  350000 50000 0  400000 50000 0  450000 50000 0  500000 50000 0  550000 50000 0  600000 50000 0  650000 50000 0  700000 50000 0  750000 50000 0  800000 50000 0  850000 50000 0  900000 50000 0  950000 50000 0  1000000 50000 0  0 100000 0  50000 100000 0  100000 100000 0  150000 100000 0  200000 100000 0  250000 100000 0  300000 100000 0  350000 100000 0  400000 100000 0  450000 100000 0  500000 100000 0  550000 100000 0  600000 100000 0  650000 100000 0  700000 100000 0  750000 100000 0  800000 100000 0  850000 100000 0  900000 100000 0  950000 100000 0  1000000 100000 0  0 150000 0  50000 150000 0  100000 150000 0  150000 150000 0  200000 150000 0  250000 150000 0  300000 150000 0  350000 150000 0  400000 150000 0  450000 150000 0  500000 150000 0  550000 150000 0  600000 150000 0  650000 150000 0  700000 150000 0  750000 150000 0  800000 150000 0  850000 150000 0  900000 150000 0  950000 150000 0  1000000 150000 0  0 200000 0  50000 200000 0  100000 200000 0  150000 200000 0  200000 200000 0  250000 200000 0  300000 200000 0  350000 200000 0  400000 200000 0  450000 200000 0  500000 200000 0  550000 200000 0  600000 200000 0  650000 200000 0  700000 200000 0  750000 200000 0  800000 200000 0  850000 200000 0  900000 200000 0  950000 200000 0  1000000 200000 0  0 250000 0  50000 250000 0  100000 250000 0  150000 250000 0  200000 250000 0  250000 250000 0  300000 250000 0  350000 250000 0  400000 250000 0  450000 250000 0  500000 250000 0  550000 250000 0  600000 250000 0  650000 250000 0  700000 250000 0  750000 250000 0  800000 250000 0  850000 250000 0  900000 250000 0  950000 250000 0  1000000 250000 0  0 300000 0  50000 300000 0  100000 300000 0  150000 300000 0  200000 300000 0  250000 300000 0  300000 300000 0  350000 300000 0  400000 300000 0  450000 300000 0  500000 300000 0  550000 300000 0  600000 300000 0  650000 300000 0  700000 300000 0  750000 300000 0  800000 300000 0  850000 300000 0  900000 300000 0  950000 300000 0  1000000 300000 0  0 350000 0  50000 350000 0  100000 350000 0  150000 350000 0  200000 350000 0  250000 350000 0  300000 350000 0  350000 350000 0  400000 350000 0  450000 350000 0  500000 350000 0  550000 350000 0  600000 350000 0  650000 350000 0  700000 350000 0  750000 350000 0  800000 350000 0  850000 350000 0  900000 350000 0  950000 350000 0  1000000 350000 0  0 400000 0  50000 400000 0  100000 400000 0  150000 400000 0  200000 400000 0  250000 400000 0  300000 400000 0  350000 400000 0  400000 400000 0  450000 400000 0  500000 400000 0  550000 400000 0  600000 400000 0  650000 400000 0  700000 400000 0  750000 400000 0  800000 400000 0  850000 400000 0  900000 400000 0  950000 400000 0  1000000 400000 0  0 450000 0  50000 450000 0  100000 450000 0  150000 450000 0  200000 450000 0  250000 450000 0  300000 450000 0  350000 450000 0  400000 450000 0  450000 450000 0  500000 450000 0  550000 450000 0  600000 450000 0  650000 450000 0  700000 450000 0  750000 450000 0  800000 450000 0  850000 450000 0  900000 450000 0  950000 450000 0  1000000 450000 0  0 500000 0  50000 500000 0  100000 500000 0  150000 500000 0  200000 500000 0  250000 500000 0  300000 500000 0  350000 500000 0  400000 500000 0  450000 500000 0  500000 500000 0  550000 500000 0  600000 500000 0  650000 500000 0  700000 500000 0  750000 500000 0  800000 500000 0  850000 500000 0  900000 500000 0  950000 500000 0  1000000 500000 0  0 550000 0  50000 550000 0  100000 550000 0  150000 550000 0  200000 550000 0  250000 550000 0  300000 550000 0  350000 550000 0  400000 550000 0  450000 550000 0  500000 550000 0  550000 550000 0  600000 550000 0  650000 550000 0  700000 550000 0  750000 550000 0  800000 550000 0  850000 550000 0  900000 550000 0  950000 550000 0  1000000 550000 0  0 600000 0  50000 600000 0  100000 600000 0  150000 600000 0  200000 600000 0  250000 600000 0  300000 600000 0  350000 600000 0  400000 600000 0  450000 600000 0  500000 600000 0  550000 600000 0  600000 600000 0  650000 600000 0  700000 600000 0  750000 600000 0  800000 600000 0  850000 600000 0  900000 600000 0  950000 600000 0  1000000 600000 0  0 650000 0  50000 650000 0  100000 650000 0  150000 650000 0  200000 650000 0  250000 650000 0  300000 650000 0  350000 650000 0  400000 650000 0  450000 650000 0  500000 650000 0  550000 650000 0  600000 650000 0  650000 650000 0  700000 650000 0  750000 650000 0  800000 650000 0  850000 650000 0  900000 650000 0  950000 650000 0  1000000 650000 0  0 700000 0  50000 700000 0  100000 700000 0  150000 700000 0  200000 700000 0  250000 700000 0  300000 700000 0  350000 700000 0  400000 700000 0  450000 700000 0  500000 700000 0  550000 700000 0  600000 700000 0  650000 700000 0  700000 700000 0  750000 700000 0  800000 700000 0  850000 700000 0  900000 700000 0  950000 700000 0  1000000 700000 0  0 750000 0  50000 750000 0  100000 750000 0  150000 750000 0  200000 750000 0  250000 750000 0  300000 750000 0  350000 750000 0  400000 750000 0  450000 750000 0  500000 750000 0  550000 750000 0  600000 750000 0  650000 750000 0  700000 750000 0  750000 750000 0  800000 750000 0  850000 750000 0  900000 750000 0  950000 750000 0  1000000 750000 0  0 800000 0  50000 800000 0  100000 800000 0  150000 800000 0  200000 800000 0  250000 800000 0  300000 800000 0  350000 800000 0  400000 800000 0  450000 800000 0  500000 800000 0  550000 800000 0  600000 800000 0  650000 800000 0  700000 800000 0  750000 800000 0  800000 800000 0  850000 800000 0  900000 800000 0  950000 800000 0  1000000 800000 0  0 850000 0  50000 850000 0  100000 850000 0  150000 850000 0  200000 850000 0  250000 850000 0  300000 850000 0  350000 850000 0  400000 850000 0  450000 850000 0  500000 850000 0  550000 850000 0  600000 850000 0  650000 850000 0  700000 850000 0  750000 850000 0  800000 850000 0  850000 850000 0  900000 850000 0  950000 850000 0  1000000 850000 0  0 900000 0  50000 900000 0  100000 900000 0  150000 900000 0  200000 900000 0  250000 900000 0  300000 900000 0  350000 900000 0  400000 900000 0  450000 900000 0  500000 900000 0  550000 900000 0  600000 900000 0  650000 900000 0  700000 900000 0  750000 900000 0  800000 900000 0  850000 900000 0  900000 900000 0  950000 900000 0  1000000 900000 0  0 950000 0  50000 950000 0  100000 950000 0  150000 950000 0  200000 950000 0  250000 950000 0  300000 950000 0  350000 950000 0  400000 950000 0  450000 950000 0  500000 950000 0  550000 950000 0  600000 950000 0  650000 950000 0  700000 950000 0  750000 950000 0  800000 950000 0  850000 950000 0  900000 950000 0  950000 950000 0  1000000 950000 0  0 1000000 0  50000 1000000 0  100000 1000000 0  150000 1000000 0  200000 1000000 0  250000 1000000 0  300000 1000000 0  350000 1000000 0  400000 1000000 0  450000 1000000 0  500000 1000000 0  550000 1000000 0  600000 1000000 0  650000 1000000 0  700000 1000000 0  750000 1000000 0  800000 1000000 0  850000 1000000 0  900000 1000000 0  950000 1000000 0  1000000 1000000 0  0 1050000 0  50000 1050000 0  100000 1050000 0  150000 1050000 0  200000 1050000 0  250000 1050000 0  300000 1050000 0  350000 1050000 0  400000 1050000 0  450000 1050000 0  500000 1050000 0  550000 1050000 0  600000 1050000 0  650000 1050000 0  700000 1050000 0  750000 1050000 0  800000 1050000 0  850000 1050000 0  900000 1050000 0  950000 1050000 0  1000000 1050000 0  0 1100000 0  50000 1100000 0  100000 1100000 0  150000 1100000 0  200000 1100000 0  250000 1100000 0  300000 1100000 0  350000 1100000 0  400000 1100000 0  450000 1100000 0  500000 1100000 0  550000 1100000 0  600000 1100000 0  650000 1100000 0  700000 1100000 0  750000 1100000 0  800000 1100000 0  850000 1100000 0  900000 1100000 0  950000 1100000 0  1000000 1100000 0  0 1150000 0  50000 1150000 0  100000 1150000 0  150000 1150000 0  200000 1150000 0  250000 1150000 0  300000 1150000 0  350000 1150000 0  400000 1150000 0  450000 1150000 0  500000 1150000 0  550000 1150000 0  600000 1150000 0  650000 1150000 0  700000 1150000 0  750000 1150000 0  800000 1150000 0  850000 1150000 0  900000 1150000 0  950000 1150000 0  1000000 1150000 0  0 1200000 0  50000 1200000 0  100000 1200000 0  150000 1200000 0  200000 1200000 0  250000 1200000 0  300000 1200000 0  350000 1200000 0  400000 1200000 0  450000 1200000 0  500000 1200000 0  550000 1200000 0  600000 1200000 0  650000 1200000 0  700000 1200000 0  750000 1200000 0  800000 1200000 0  850000 1200000 0  900000 1200000 0  950000 1200000 0  1000000 1200000 0  0 1250000 0  50000 1250000 0  100000 1250000 0  150000 1250000 0  200000 1250000 0  250000 1250000 0  300000 1250000 0  350000 1250000 0  400000 1250000 0  450000 1250000 0  500000 1250000 0  550000 1250000 0  600000 1250000 0  650000 1250000 0  700000 1250000 0  750000 1250000 0  800000 1250000 0  850000 1250000 0  900000 1250000 0  950000 1250000 0  1000000 1250000 0  0 1300000 0  50000 1300000 0  100000 1300000 0  150000 1300000 0  200000 1300000 0  250000 1300000 0  300000 1300000 0  350000 1300000 0  400000 1300000 0  450000 1300000 0  500000 1300000 0  550000 1300000 0  600000 1300000 0  650000 1300000 0  700000 1300000 0  750000 1300000 0  800000 1300000 0  850000 1300000 0  900000 1300000 0  950000 1300000 0  1000000 1300000 0  0 1350000 0  50000 1350000 0  100000 1350000 0  150000 1350000 0  200000 1350000 0  250000 1350000 0  300000 1350000 0  350000 1350000 0  400000 1350000 0  450000 1350000 0  500000 1350000 0  550000 1350000 0  600000 1350000 0  650000 1350000 0  700000 135
[...]
<PointData  Vectors="f_15"> 
<DataArray  type="Float64"  Name="f_15"  NumberOfComponents="3" format="ascii">-3.1551792317678125e-10 3.1632696393668580e-10 0.0000000000000000e+00  -5.8787882683827054e-10 2.6246454329957962e-10 0.0000000000000000e+00  -1.0727412503010889e-09 2.3843686758238162e-10 0.0000000000000000e+00  -1.5414882649151028e-09 2.1732295966524932e-10 0.0000000000000000e+00  -1.9707168956177777e-09 1.9330626041127732e-10 0.0000000000000000e+00  -2.3478626306126874e-09 1.6568189529775969e-10 0.0000000000000000e+00  -2.6627250835624191e-09 1.3467710233861040e-10 0.0000000000000000e+00  -2.9070595293495559e-09 1.0085018217239611e-10 0.0000000000000000e+00  -3.0745630414804867e-09 6.4937998755588213e-11 0.0000000000000000e+00  -3.1609826391081630e-09 2.7781186282512826e-11 0.0000000000000000e+00  -3.1642054012638335e-09 -9.7229568479562166e-12 0.0000000000000000e+00  -3.0843020003703267e-09 -4.6656328226579501e-11 0.0000000000000000e+00  -2.9235182004027494e-09 -8.2111383773213881e-11 0.0000000000000000e+00  -2.6862142299752181e-09 -1.1522143950377385e-10 0.0000000000000000e+00  -2.3787627296364935e-09 -1.4519418856246568e-10 0.0000000000000000e+00  -2.0094713902630450e-09 -1.7136241529220403e-10 0.0000000000000000e+00  -1.5888774002551722e-09 -1.9330356963646562e-10 0.0000000000000000e+00  -1.1320061325118032e-09 -2.1117184837810515e-10 0.0000000000000000e+00  -6.6907257653072847e-10 -2.2537181521202008e-10 0.0000000000000000e+00  -2.9097747174510150e-10 -2.1800991873110438e-10 0.0000000000000000e+00  -1.3164111323380217e-10 -1.3469128311482505e-10 0.0000000000000000e+00  -2.6855968260363501e-10 5.6778903925540264e-10 0.0000000000000000e+00  -4.9708471526004099e-10 4.9380670932204753e-10 0.0000000000000000e+00  -8.8596935174722909e-10 5.0199008517333333e-10 0.0000000000000000e+00  -1.3078031770990588e-09 4.7847028218779667e-10 0.0000000000000000e+00  -1.7097904419609086e-09 4.3600893166273810e-10 0.0000000000000000e+00  -2.0723631749292958e-09 3.7989012865636874e-10 0.0000000000000000e+00  -2.3832606556581802e-09 3.1297172330661827e-10 0.0000000000000000e+00  -2.6332289975213542e-09 2.3755916032351704e-10 0.0000000000000000e+00  -2.8152438192464893e-09 1.5588539378933347e-10 0.0000000000000000e+00  -2.9243562712101443e-09 7.0222015240914658e-11 0.0000000000000000e+00  -2.9576920247507144e-09 -1.7112659588961375e-11 0.0000000000000000e+00  -2.9144682890585826e-09 -1.0378138484647053e-10 0.0000000000000000e+00  -2.7959922656117382e-09 -1.8746774030336307e-10 0.0000000000000000e+00  -2.6056337553718910e-09 -2.6591585845284527e-10 0.0000000000000000e+00  -2.3487824340607749e-09 -3.3695913000385905e-10 0.0000000000000000e+00  -2.0328388893931497e-09 -3.9851740089438519e-10 0.0000000000000000e+00  -1.6674233101837576e-09 -4.4849801447141308e-10 0.0000000000000000e+00  -1.2655299116371396e-09 -4.8428727981507496e-10 0.0000000000000000e+00  -8.4866584010720416e-10 -4.9992301210250032e-10 0.0000000000000000e+00  -4.6883113101860364e-10 -4.7221498294166170e-10 0.0000000000000000e+00  -2.2252678281769225e-10 -2.8254580836800690e-10 0.0000000000000000e+00  -2.6503822259611626e-10 1.0132458892989858e-09 0.0000000000000000e+00  -5.0795291567407470e-10 8.6881574321998588e-10 0.0000000000000000e+00  -8.8073082390318629e-10 8.6771307400055876e-10 0.0000000000000000e+00  -1.2717490899024561e-09 8.3047465895432697e-10 0.0000000000000000e+00  -1.6435200287429471e-09 7.6100215247571179e-10 0.0000000000000000e+00  -1.9796480137752692e-09 6.6617649705154220e-10 0.0000000000000000e+00  -2.2685335875598882e-09 5.5124253371229265e-10 0.0000000000000000e+00  -2.5012205081024247e-09 4.2057834576832276e-10 0.0000000000000000e+00  -2.6708771567049045e-09 2.7832993209541316e-10 0.0000000000000000e+00  -2.7726965131683322e-09 1.2863605431800089e-10 0.0000000000000000e+00  -2.8038843771812614e-09 -2.4323375348733572e-11 0.0000000000000000e+00  -2.7636628054670464e-09 -1.7635102827737720e-10 0.0000000000000000e+00  -2.6532639883006776e-09 -3.2328263746006874e-10 0.0000000000000000e+00  -2.4759077752308038e-09 -4.6103765785428265e-10 0.0000000000000000e+00  -2.2367713764245150e-09 -5.8564398514901217e-10 0.0000000000000000e+00  -1.9429890483539861e-09 -6.9319149754972861e-10 0.0000000000000000e+00  -1.6038132660926475e-09 -7.7960791854606174e-10 0.0000000000000000e+00  -1.2314266603662348e-09 -8.3997925227965807e-10 0.0000000000000000e+00  -8.4425224135761432e-10 -8.6665544346459992e-10 0.0000000000000000e+00  -4.8291917258630049e-10 -8.4610696717885961e-10 0.0000000000000000e+00  -2.3720640073206538e-10 -6.2930568910745506e-10 0.0000000000000000e+00  -2.7575514127792317e-10 1.4516352685875885e-09 0.0000000000000000e+00  -5.0448438083369752e-10 1.2889467187583174e-09 0.0000000000000000e+00  -8.7021196800747961e-10 1.2616676377064026e-09 0.0000000000000000e+00  -1.2503667164612630e-09 1.2008044008214898e-09 0.0000000000000000e+00  -1.6076547604747002e-09 1.1002646046650370e-09 0.0000000000000000e+00  -1.9285064287422144e-09 9.6475617331148150e-10 0.0000000000000000e+00  -2.2033972972620839e-09 8.0026840337575073e-10 0.0000000000000000e+00  -2.4244064241106076e-09 6.1275462790624935e-10 0.0000000000000000e+00  -2.5852453872311100e-09 4.0815750569348462e-10 0.0000000000000000e+00  -2.6814101007555039e-09 1.9249200677070608e-10 0.0000000000000000e+00  -2.7102698146032131e-09 -2.8148651006199552e-11 0.0000000000000000e+00  -2.6711070464568465e-09 -2.4764165927225620e-10 0.0000000000000000e+00  -2.5651218603544659e-09 -4.5990792588035605e-10 0.0000000000000000e+00  -2.3954063725317346e-09 -6.5898560314672426e-10 0.0000000000000000e+00  -2.1668933688064016e-09 -8.3907946330583769e-10 0.0000000000000000e+00  -1.8862920660613055e-09 -9.9455545034255671e-10 0.0000000000000000e+00  -1.5620787382770599e-09 -1.1198450844717202e-09 0.0000000000000000e+00  -1.2049000834675552e-09 -1.2092669604622684e-09 0.0000000000000000e+00  -8.3020960606508341e-10 -1.2568438752471601e-09 0.0000000000000000e+00  -4.7562556629972329e-10 -1.2557069209315027e-09 0.0000000000000000e+00  -2.4024257597992787e-10 -1.0510361631945405e-09 0.0000000000000000e+00  -2.9396904830823054e-10 1.8807045333848438e-09 0.0000000000000000e+00  -5.0445351207237475e-10 1.7093923951472175e-09 0.0000000000000000e+00  -8.6466435134814582e-10 1.6591506719584242e-09 0.0000000000000000e+00  -1.2408631241590342e-09 1.5706930670049224e-09 0.0000000000000000e+00  -1.5929139208171628e-09 1.4363507688775575e-09 0.0000000000000000e+00  -1.9072407234787966e-09 1.2592732093053384e-09 0.0000000000000000e+00  -2.1752856480301414e-09 1.0454875131168291e-09 0.0000000000000000e+00  -2.3900342791094047e-09 8.0198341619036839e-10 0.0000000000000000e+00  -2.5458014280777497e-09 5.3620813849148720e-10 0.0000000000000000e+00  -2.6384505474380234e-09 2.5589510572620127e-10 0.0000000000000000e+00  -2.6655580490997444e-09 -3.1046033477067225e-11 0.0000000000000000e+00  -2.6264941856056191e-09 -3.1664043123149068e-10 0.0000000000000000e+00  -2.5224427660926151e-09 -5.9296604659969031e-10 0.0000000000000000e+00  -2.3563717126907277e-09 -8.5227123073373567e-10 0.0000000000000000e+00  -2.1329564359723392e-09 -1.0870833360890155e-09 0.0000000000000000e+00  -1.8584611315704536e-09 -1.2903076131573020e-09 0.0000000000000000e+00  -1.5406496841793599e-09 -1.4553465993316688e-09 0.0000000000000000e+00  -1.1891889346761472e-09 -1.5763506348864230e-09 0.0000000000000000e+00  -8.1889512288963285e-10 -1.6485739110189770e-09 0.0000000000000000e+00  -4.6971289877929361e-10 -1.6670590757042193e-09 0.0000000000000000e+00  -2.5084506050558161e-10 -1.4769285743348355e-09 0.0000000000000000e+00  -3.1839890762157115e-10 2.3058243627552946e-09 0.0000000000000000e+00  -5.1030112123215750e-10 2.1272282970440521e-09 0.0000000000000000e+00  -8.6726779652206014e-10 2.0575501061432953e-09 0.0000000000000000e+00  -1.2435766042420484e-09 1.9409356912760350e-09 0.0000000000000000e+00  -1.5957700634283653e-09 1.7712271313581500e-09 0.0000000000000000e+00  -1.9093223407091823e-09 1.5514885213948124e-09 0.0000000000000000e+00  -2.1757540625769699e-09 1.2880342348060387e-09 0.0000000000000000e+00  -2.3884737238024808e-09 9.8873898969295354e-10 0.0000000000000000e+00  -2.5422162444571938e-09 6.6236504205163642e-10 0.0000000000000000e+00  -2.6331590312292541e-09 3.1821367494603692e-10 0.0000000000000000e+00  -2.6590775071436359e-09 -3.4105135729840229e-11 0.0000000000000000e+00  -2.6194369720214108e-09 -3.8486288656898536e-10 0.0000000000000000e+00  -2.5154197347422933e-09 -7.2439061334425621e-10 0.0000000000000000e+00  -2.3498952510952807e-09 -1.0432552082468533e-09 0.0000000000000000e+00  -2.1273361586143526e-09 -1.3324419535467892e-09 0.0000000000000000e+00  -1.8536951406981851e-09 -1.5835611594965469e-09 0.0000000000000000e+00  -1.5363573534826842e-09 -1.7891223923948953e-09 0.0000000000000000e+00  -1.1847735814211234e-09 -1.9429445689335138e-09 0.0000000000000000e+00  -8.1448535657958382e-10 -2.0404365558564703e-09 0.0000000000000000e+00  -4.6907147618436151e-10 -2.0765621466216409e-09 0.0000000000000000e+00  -2.6809338110399998e-10 -1.8965544873098957e-09 0.0000000000000000e+00  -3.4861450863944136e-10 2.7318587503794167e-09 0.0000000000000000e+00  -5.2179081681214812e-10 2.5460469886183726e-09 0.0000000000000000e+00  -8.7787187798438666e-10 2.4586459913077718e-09 0.0000000000000000e+00  -1.2572608090555280e-09 2.3143030172784103e-09 0.0000000000000000e+00  -1.6129874868550542e-09 2.1084260988862488e-09 0.0000000000000000e+00  -1.9293733278024885e-09 1.8449546709002730e-09 0.0000000000000000e+00  -2.1976198686380055e-09 1.5309603054113448e-09 0.0000000000000000e+00  -2.4112033332688650e-09 1.1753179857986533e-09 0.0000000000000000e+00  -2.5650641647848566e-09 7.8807123737957215e-10 0.0000000000000000e+00  -2.6555896230189068e-09 3.8001028617064910e-10 0.0000000000000000e+00  -2.6807132070915763e-09 -3.7641375360861198e-11 0.0000000000000000e+00  -2.6399873951851149e-09 -4.5348696761588453e-10 0.0000000000000000e+00  -2.5346071171667379e-09 -8.5619396628711258e-10 0.0000000000000000e+00  -2.3673839078324853e-09 -1.2347291013402002e-09 0.0000000000000000e+00  -2.1426749968628335e-09 -1.5786082217303557e-09 0.0000000000000000e+00  -1.8662954000556749e-09 -1.8781827025056540e-09 0.0000000000000000e+00  -1.5455662499855404e-09 -2.1249908678784369e-09 0.0000000000000000e+00  -1.1902006731322693e-09 -2.3121825813321832e-09 0.0000000000000000e+00  -8.1697827655582248e-10 -2.4346371143097846e-09 0.0000000000000000e+00  -4.7350377843713235e-10 -2.4866182058689537e-09 0.0000000000000000e+00  -2.9111187195765950e-10 -2.3123399297071340e-09 0.0000000000000000e+00  -3.8446053934992776e-10 3.1624619204633673e-09 0.0000000000000000e+00  -5.3789362532905390e-10 2.9692863689907842e-09 0.0000000000000000e+00  -8.9474164435500348e-10 2.8649713929921861e-09 0.0000000000000000e+00  -1.2792163479374522e-09 2.6931588964863269e-09 0.0000000000000000e+00  -1.6405056673521023e-09 2.4505498893803542e-09 0.0000000000000000e+00  -1.9617565172657146e-09 2.1423145077248119e-09 0.0000000000000000e+00  -2.2337388827181988e-09 1.7766460052232688e-09 0.0000000000000000e+00  -2.4498309237825381e-09 1.3636172129026292e-09 0.0000000000000000e+00  -2.6050414332417960e-09 9.1461538690707091e-10 0.0000000000000000e+00  -2.6958840096042225e-09 4.4190728637387755e-10 0.0000000000000000e+00  -2.7204098774113540e-09 -4.1717991823066335e-11 0.0000000000000000e+00  -2.6782465198687576e-09 -5.2325651785046811e-10 0.0000000000000000e+00  -2.5706104699747477e-09 -9.8977238394251345e-10 0.0000000000000000e+00  -2.4002893209481699e-09 -1.4286786080649109e-09 0.0000000000000000e+00  -2.1715975034155742e-09 -1.8280368588144817e-09 0.0000000000000000e+00  -1.8903414436372117e-09 -2.1768946211408581e-09 0.0000000000000000e+00  -1.5639697574139895e-09 -2.4656710324942710e-09 0.0000000000000000e+00  -1.2026766199577669e-09 -2.6865650813366000e-09 0.0000000000000000e+00  -8.2465777133393257e-10 -2.8335806954272007e-09 0.0000000000000000e+00  -4.8190284601492023e-10 -2.9001291897572360e-09 0.0000000000000000e+00  -3.1956201260733589e-10 -2.7283230450658578e-09 0.0000000000000000e+00  -4.2593374790719490e-10 3.5997596937795632e-09 0.0000000000000000e+00  -5.5723530325870882e-10 3.3992700947231390e-09 0.0000000000000000e+00  -9.1531227100118353e-10 3.2783188726197108e-09 0.0000000000000000e+00  -1.3056947710140469e-09 3.0789467775688787e-09 0.0000000000000000e+00  -1.6732806014776258e-09 2.7989714748565453e-09 0.0000000000000000e+00  -2.0000408897136095e-09 2.4449145676265102e-09 0.0000000000000000e+00  -2.2763301495501426e-09 2.0263208985319996e-09 0.0000000000000000e+00  -2.4954036954550270e-09 1.5546414970406428e-09 0.0000000000000000e+00  -2.6523013214732167e-09 1.0427016452123500e-09 0.0000000000000000e+00  -2.7436353561572260e-09 5.0426696384327165e-10 0.0000000000000000e+00  -2.7675600237498306e-09 -4.6331556426480407e-11 0.0000000000000000e+00  -2.7237713217265680e-09 -5.9452794051655975e-10 0.0000000000000000e+00  -2.6135067480594357e-09 -1.1258275240386822e-09 0.0000000000000000e+00  -2.4395389601366696e-09 -1.6261133574096659e-09 0.0000000000000000e+00  -2.2061667395538601e-09 -2.0819755426810651e-09 0.0000000000000000e+00  -1.9192398759191660e-09 -2.4810796153093812e-09 0.0000000000000000e+00  -1.5864052514804399e-09 -2.8125752587840265e-09 0.0000000000000000e+00  -1.2184055219173214e-09 -3.0675066340555267e-09 0.0000000000000000e+00  -8.3493406948157496e-10 -3.2388266684994670e-09 0.0000000000000000e+00  -4.9281014203693679e-10 -3.3190779869381095e-09 0.0000000000000000e+00  -3.5332769854397399e-10 -3.1475806938756716e-09 0.0000000000000000e+00  -4.7312504693193548e-10 4.0441421170141559e-09 0.0000000000000000e+00  -5.7818782599221336e-10 3.8368534777975496e-09 0.0000000000000000e+00  -9.3640970889047289e-10 3.6991853889620222e-09 0.0000000000000000e+00  -1.3320412279946253e-09 3.4718556730288682e-09 0.0000000000000000e+00  -1.7051942868956462e-09 3.1537269464662260e-09 0.0000000000000000e+00  -2.0366587797255041e-09 2.7527514264375233e-09 0.0000000000000000e+00  -2.3164560085350419e-09 2.2799819026281091e-09 0.0000000000000000e+00  -2.5377927077369720e-09 1.7483934057722442e-09 0.0000000000000000e+00  -2.6957951548834347e-09 1.1723377849702427e-09 0.0000000000000000e+00  -2.7872143988543334e-09 5.6710396356500616e-10 0.0000000000000000e+00  -2.8103316113338578e-09 -5.1459957298887255e-11 0.0000000000000000e+00  -2.7649162606181441e-09 -6.6727601507313954e-10 0.0000000000000000e+00  -2.6522125581834664e-09 -1.2643396175873612e-09 0.0000000000000000e+00  -2.4749497953325614e-09 -1.8270261594348678e-09 0.0000000000000000e+00  -2.2373773171405347e-09 -2.3404291681766352e-09 0.0000000000000000e+00  -1.9453569136396353e-09 -2.7907481063628150e-09 0.0000000000000000e+00  -1.6067067775236000e-09 -3.1657248253940982e-09 0.0000000000000000e+00  -1.2326994562253145e-09 -3.4550884673386774e-09 0.0000000000000000e+00  -8.4458252228424742e-10 -3.6506259004040965e-09 0.0000000000000000e+00  -5.0450748463770711e-10 -3.7440178489964366e-09 0.0000000000000000e+00  -3.9240071498346496e-10 -3.5716297771701583e-09 0.0000000000000000e+00  -5.2618799084170100e-10 4.4940129836972847e-09 0.0000000000000000e+00  -5.9884335792941581e-10 4.2811203966870961e-09 0.0000000000000000e+00  -9.5423815276937446e-10 4.1264110387195911e-09 0.0000000000000000e+00  -1.3526385431667416e-09 3.8704946695223059e-09 0.0000000000000000e+00  -1.7288748823720329e-09 3.5133078374586671e-09 0.0000000000000000e+00  -2.0625620486465102e-09 3.0643390730234287e-09 0.0000000000000000e+00  -2.3435256274089488e-09 2.5362897663394418e-09 0.0000000000000000e+00  -2.5650823480708588e-09 1.9437823316367989e-09 0.0000000000000000e+00  -2.7225890908767677e-09 1.3027626150605415e-09 0.0000000000000000e+00  -2.8130483827656707e-09 6.3004326277960187e-10 0.0000000000000000e+00  -2.8349378726355608e-09 -5.7065247768741168e-11 0.0000000000000000e+00  -2.7881193798973086e-09 -7.4105671659618765e-10 0.0000000000000000e+00  -2.6738115638738860e-09 -1.4044971598605508e-09 0.0000000000000000e+00  -2.4946245408458027e-09 -2.0303004972833818e-09 0.0000000000000000e+00  -2.2546529832801904e-09 -2.6020521132936618e-09 0.0000000000000000e+00  -1.9596529097990194e-09 -3.1044069459757856e-09 0.0000000000000000e+00  -1.6175007162560157e-09 -3.5235649216115453e-09 0.0000000000000000e+00  -1.2399171335139702e-09 -3.8477858779034949e-09 0.0000000000000000e+00  -8.4974514394954242e-10 -4.0675747403459888e-09 0.0000000000000000e+00  -5.1499352280328455e-10 -4.1737415131612841e-09 0.0000000000000000e+00  -4.3683751130827318e-10 -4.0001747122098109e-09 0.0000000000000000e+00  -5.8532063106487708e-10 4.9454570147814312e-09 0.0000000000000000e+00  -6.1694410827873811e-10 4.7290466785271015e-09 0.0000000000000000e+00  -9.6426234833005062e-10 4.5568085698287609e-09 0.0000000000000000e+00  -1.3607251787858839e-09 4.2715245488306155e-09 0.0000000000000000e+00  -1.7354133775761423e-09 3.8743406952437329e-09 0.0000000000000000e+00  -2.0668087364748672e-09 3.3764474216349708e-09 0.0000000000000000e+00  -2.3447474685790512e-09 2.7923578698511314e-09 0.0000000000000000e+00  -2.5629072474864319e-09 2.1384596786272833e-09 0.0000000000000000e+00  -2.7171165879400487e-09 1.4323325649342159e-09 0.0000000000000000e+00  -2.8048241979274480e-09 6.9226658075424995e-10 0.0000000000000000e+00  -2.8248262467033185e-09 -6.3081740728413218e-11 0.0000000000000000e+00  -2.7771109634111327e-09 -8.1493040339391173e-10 0.0000000000000000e+00  -2.6628153134236312e-09 -1.5445622286957735e-09 0.0000000000000000e+00  -2.4842953341286994e-09 -2.2335285271487052e-09 0.0000000000000000e+00  -2.2453005168853092e-09 -2.8639276801321198e-09 0.0000000000000000e+00  -1.9512659243706024e-09 -3.4188020506391307e-09 0.0000000000000000e+00  -1.6099217576797976e-09 -3.8826655147519622e-09 0.0000000000000000e+00  -1.2332897329473922e-09 -4.2421271568714556e-09 0.0000000000000000e+00  -8.4582468149775944e-10 -4.4862540326145623e-09 0.0000000000000000e+00  -5.2191602872118331e-10 -4.6049435290038390e-09 0.0000000000000000e+00  -4.8673751154799489e-10 -4.4308471506984525e-09 0.0000000000000000e+00  -6.5075646404182614e-10 5.3918075656907149e-09 0.0000000000000000e+00  -6.2979045662687361e-10 5.1750892367856395e-09 0.0000000000000000e+00  -9.6103283301979770e-10 4.9847261797764217e-09 0.0000000000000000e+00  -1.3481279071588012e-09 4.6692092610678156e-09 0.0000000000000000e+00  -1.7139843510368242e-09 4.2311551951240042e-09 0.0000000000000000e+00  -2.0360542286289575e-09 3.6837114476949731e-09 0.0000000000000000e+00  -2.3044870142098376e-09 3.0434181250824489e-09 0.0000000000000000e+00  -2.5136901344410696e-09 2.3285550628648428e-09 0.0000000000000000e+00  -2.6603240309279223e-09 1.5583418977292259e-09 0.0000000000000000e+00  -2.7425778827421132e-09 7.5242831865873844e-10 0.0000000000000000e+00  -2.7597515434158936e-09 -6.9398150234761295e-11 0.0000000000000000e+00  -2.7120104445817707e-09 -8.8734368226548165e-10 0.0000000000000000e+00  -2.6003217060330225e-09 -1.6816616371947016e-09 0.0000000000000000e+00  -2.4265767279559067e-09 -2.4327267988980341e-09 0.0000000000000000e+00  -2.1938821503544901e-09 -3.1212256047857492e-09 0.0000000000000000e+00  -1.9070163793463229e-09 -3.7285332991884729e-09 0.0000000000000000e+00  -1.5732468930907049e-09 -4.2373068535315454e-09 0.0000000000000000e+00  -1.2046662302187408e-09 -4.6322637965194617e-09 0.0000000000000000e+00  -8.2731775972702651e-10 -4.9008025034453266e-09 0.0000000000000000e+00  -5.2247948722583221e-10 -5.0318160460507181e-09 0.0000000000000000e+00  -5.4222999730432509e-10 -4.8588650776769759e-09 0.0000000000000000e+00  -7.2276501977961057e-10 5.8230996697468019e-09 0.0000000000000000e+00  -6.3413407696046367e-10 5.6106755000717576e-09 0.0000000000000000e+00  -9.3796982248231323e-10 5.4015116065691086e-09 0.0000000000000000e+00  -1.3049245029918515e-09 5.0548581262273122e-09 0.0000000000000000e+00  -1.6513721835436844e-09 4.5752258687557749e-09 0.0000000000000000e+00  -1.95392927