<?xml version="1.0"?>
<VTKFile type="UnstructuredGrid"  version="0.1"  >
<UnstructuredGrid>
<Piece  NumberOfPoints="651" NumberOfCells="1200">
<Points>
<DataArray  type="Float64"  NumberOfComponents="3"  format="ascii">0 0 0  50000 0 0  100000 0 0  150000 0 0  200000 0 0  250000 0 0  300000 0 0  350000 0 0  400000 0 0  450000 0 0  500000 0 0  550000 0 0  600000 0 0  650000 0 0  700000 0 0  750000 0 0  800000 0 0  850000 0 0  900000 0 0  950000 0 0  1000000 0 0  0 50000 0  50000 50000 0  100000 50000 0  150000 50000 0  200000 50000 0  250000 50000 0  300000 50000 0  350000 50000 0  400000 50000 0  450000 50000 0  500000 50000 0  550000 50000 0  600000 50000 0  650000 50000 0  700000 50000 0  750000 50000 0  800000 50000 0  850000 50000 0  900000 50000 0  950000 50000 0  1000000 50000 0  0 100000 0  50000 100000 0  100000 100000 0  150000 100000 0  200000 100000 0  250000 100000 0  300000 100000 0  350000 100000 0  400000 100000 0  450000 100000 0  500000 100000 0  550000 100000 0  600000 100000 0  650000 100000 0  700000 100000 0  750000 100000 0  800000 100000 0  850000 100000 0  900000 100000 0  950000 100000 0  1000000 100000 0  0 150000 0  50000 150000 0  100000 150000 0  150000 150000 0  200000 150000 0  250000 150000 0  300000 150000 0  350000 150000 0  400000 150000 0  450000 150000 0  500000 150000 0  550000 150000 0  600000 150000 0  650000 150000 0  700000 150000 0  750000 150000 0  800000 150000 0  850000 150000 0  900000 150000 0  950000 150000 0  1000000 150000 0  0 200000 0  50000 200000 0  100000 200000 0  150000 200000 0  200000 200000 0  250000 200000 0  300000 200000 0  350000 200000 0  400000 200000 0  450000 200000 0  500000 200000 0  550000 200000 0  600000 200000 0  650000 200000 0  700000 200000 0  750000 200000 0  800000 200000 0  850000 200000 0  900000 200000 0  950000 200000 0  1000000 200000 0  0 250000 0  50000 250000 0  100000 250000 0  150000 250000 0  200000 250000 0  250000 250000 0  300000 250000 0  350000 250000 0  400000 250000 0  450000 250000 0  500000 250000 0  550000 250000 0  600000 250000 0  650000 250000 0  700000 250000 0  750000 250000 0  800000 250000 0  850000 250000 0  900000 250000 0  950000 250000 0  1000000 250000 0  0 300000 0  50000 300000 0  100000 300000 0  150000 300000 0  200000 300000 0  250000 300000 0  300000 300000 0  350000 300000 0  400000 300000 0  450000 300000 0  500000 300000 0  550000 300000 0  600000 300000 0  650000 300000 0  700000 300000 0  750000 300000 0  800000 300000 0  850000 300000 0  900000 300000 0  950000 300000 0  1000000 300000 0  0 350000 0  50000 350000 0  100000 350000 0  150000 350000 0  200000 350000 0  250000 350000 0  300000 350000 0  350000 350000 0  400000 350000 0  450000 350000 0  500000 350000 0  550000 350000 0  600000 350000 0  650000 350000 0  700000 350000 0  750000 350000 0  800000 350000 0  850000 350000 0  900000 350000 0  950000 350000 0  1000000 350000 0  0 400000 0  50000 400000 0  100000 400000 0  150000 400000 0  200000 400000 0  250000 400000 0  300000 400000 0  350000 400000 0  400000 400000 0  450000 400000 0  500000 400000 0  550000 400000 0  600000 400000 0  650000 400000 0  700000 400000 0  750000 400000 0  800000 400000 0  850000 400000 0  900000 400000 0  950000 400000 0  1000000 400000 0  0 450000 0  50000 450000 0  100000 450000 0  150000 450000 0  200000 450000 0  250000 450000 0  300000 450000 0  350000 450000 0  400000 450000 0  450000 450000 0  500000 450000 0  550000 450000 0  600000 450000 0  650000 450000 0  700000 450000 0  750000 450000 0  800000 450000 0  850000 450000 0  900000 450000 0  950000 450000 0  1000000 450000 0  0 500000 0  50000 500000 0  100000 500000 0  150000 500000 0  200000 500000 0  250000 500000 0  300000 500000 0  350000 500000 0  400000 500000 0  450000 500000 0  500000 500000 0  550000 500000 0  600000 500000 0  650000 500000 0  700000 500000 0  750000 500000 0  800000 500000 0  850000 500000 0  900000 500000 0  950000 500000 0  1000000 500000 0  0 550000 0  50000 550000 0  100000 550000 0  150000 550000 0  200000 550000 0  250000 550000 0  300000 550000 0  350000 550000 0  400000 550000 0  450000 550000 0  500000 550000 0  550000 550000 0  600000 550000 0  650000 550000 0  700000 550000 0  750000 550000 0  800000 550000 0  850000 550000 0  900000 550000 0  950000 550000 0  1000000 550000 0  0 600000 0  50000 600000 0  100000 600000 0  150000 600000 0  200000 600000 0  250000 600000 0  300000 600000 0  350000 600000 0  400000 600000 0  450000 600000 0  500000 600000 0  550000 600000 0  600000 600000 0  650000 600000 0  700000 600000 0  750000 600000 0  800000 600000 0  850000 600000 0  900000 600000 0  950000 600000 0  1000000 600000 0  0 650000 0  50000 650000 0  100000 650000 0  150000 650000 0  200000 650000 0  250000 650000 0  300000 650000 0  350000 650000 0  400000 650000 0  450000 650000 0  500000 650000 0  550000 650000 0  600000 650000 0  650000 650000 0  700000 650000 0  750000 650000 0  800000 650000 0  850000 650000 0  900000 650000 0  950000 650000 0  1000000 650000 0  0 700000 0  50000 700000 0  100000 700000 0  150000 700000 0  200000 700000 0  250000 700000 0  300000 700000 0  350000 700000 0  400000 700000 0  450000 700000 0  500000 700000 0  550000 700000 0  600000 700000 0  650000 700000 0  700000 700000 0  750000 700000 0  800000 700000 0  850000 700000 0  900000 700000 0  950000 700000 0  1000000 700000 0  0 750000 0  50000 750000 0  100000 750000 0  150000 750000 0  200000 750000 0  250000 750000 0  300000 750000 0  350000 750000 0  400000 750000 0  450000 750000 0  500000 750000 0  550000 750000 0  600000 750000 0  650000 750000 0  700000 750000 0  750000 750000 0  800000 750000 0  850000 750000 0  900000 750000 0  950000 750000 0  1000000 750000 0  0 800000 0  50000 800000 0  100000 800000 0  150000 800000 0  200000 800000 0  250000 800000 0  300000 800000 0  350000 800000 0  400000 800000 0  450000 800000 0  500000 800000 0  550000 800000 0  600000 800000 0  650000 800000 0  700000 800000 0  750000 800000 0  800000 800000 0  850000 800000 0  900000 800000 0  950000 800000 0  1000000 800000 0  0 850000 0  50000 850000 0  100000 850000 0  150000 850000 0  200000 850000 0  250000 850000 0  300000 850000 0  350000 850000 0  400000 850000 0  450000 850000 0  500000 850000 0  550000 850000 0  600000 850000 0  650000 850000 0  700000 850000 0  750000 850000 0  800000 850000 0  850000 850000 0  900000 850000 0  950000 850000 0  1000000 850000 0  0 900000 0  50000 900000 0  100000 900000 0  150000 900000 0  200000 900000 0  250000 900000 0  300000 900000 0  350000 900000 0  400000 900000 0  450000 900000 0  500000 900000 0  550000 900000 0  600000 900000 0  650000 900000 0  700000 900000 0  750000 900000 0  800000 900000 0  850000 900000 0  900000 900000 0  950000 900000 0  1000000 900000 0  0 950000 0  50000 950000 0  100000 950000 0  150000 950000 0  200000 950000 0  250000 950000 0  300000 950000 0  350000 950000 0  400000 950000 0  450000 950000 0  500000 950000 0  550000 950000 0  600000 950000 0  650000 950000 0  700000 950000 0  750000 950000 0  800000 950000 0  850000 950000 0  900000 950000 0  950000 950000 0  1000000 950000 0  0 1000000 0  50000 1000000 0  100000 1000000 0  150000 1000000 0  200000 1000000 0  250000 1000000 0  300000 1000000 0  350000 1000000 0  400000 1000000 0  450000 1000000 0  500000 1000000 0  550000 1000000 0  600000 1000000 0  650000 1000000 0  700000 1000000 0  750000 1000000 0  800000 1000000 0  850000 1000000 0  900000 1000000 0  950000 1000000 0  1000000 1000000 0  0 1050000 0  50000 1050000 0  100000 1050000 0  150000 1050000 0  200000 1050000 0  250000 1050000 0  300000 1050000 0  350000 1050000 0  400000 1050000 0  450000 1050000 0  500000 1050000 0  550000 1050000 0  600000 1050000 0  650000 1050000 0  700000 1050000 0  750000 1050000 0  800000 1050000 0  850000 1050000 0  900000 1050000 0  950000 1050000 0  1000000 1050000 0  0 1100000 0  50000 1100000 0  100000 1100000 0  150000 1100000 0  200000 1100000 0  250000 1100000 0  300000 1100000 0  350000 1100000 0  400000 1100000 0  450000 1100000 0  500000 1100000 0  550000 1100000 0  600000 1100000 0  650000 1100000 0  700000 1100000 0  750000 1100000 0  800000 1100000 0  850000 1100000 0  900000 1100000 0  950000 1100000 0  1000000 1100000 0  0 1150000 0  50000 1150000 0  100000 1150000 0  150000 1150000 0  200000 1150000 0  250000 1150000 0  300000 1150000 0  350000 1150000 0  400000 1150000 0  450000 1150000 0  500000 1150000 0  550000 1150000 0  600000 1150000 0  650000 1150000 0  700000 1150000 0  750000 1150000 0  800000 1150000 0  850000 1150000 0  900000 1150000 0  950000 1150000 0  1000000 1150000 0  0 1200000 0  50000 1200000 0  100000 1200000 0  150000 1200000 0  200000 1200000 0  250000 1200000 0  300000 1200000 0  350000 1200000 0  400000 1200000 0  450000 1200000 0  500000 1200000 0  550000 1200000 0  600000 1200000 0  650000 1200000 0  700000 1200000 0  750000 1200000 0  800000 1200000 0  850000 1200000 0  900000 1200000 0  950000 1200000 0  1000000 1200000 0  0 1250000 0  50000 1250000 0  100000 1250000 0  150000 1250000 0  200000 1250000 0  250000 1250000 0  300000 1250000 0  350000 1250000 0  400000 1250000 0  450000 1250000 0  500000 1250000 0  550000 1250000 0  600000 1250000 0  650000 1250000 0  700000 1250000 0  750000 1250000 0  800000 1250000 0  850000 1250000 0  900000 1250000 0  950000 1250000 0  1000000 1250000 0  0 1300000 0  50000 1300000 0  100000 1300000 0  150000 1300000 0  200000 1300000 0  250000 1300000 0  300000 1300000 0  350000 1300000 0  400000 1300000 0  450000 1300000 0  500000 1300000 0  550000 1300000 0  600000 1300000 0  650000 1300000 0  700000 1300000 0  750000 1300000 0  800000 1300000 0  850000 1300000 0  900000 1300000 0  950000 1300000 0  1000000 1300000 0  0 1350000 0  50000 1350000 0  100000 1350000 0  150000 1350000 0  200000 1350000 0  250000 1350000 0  300000 1350000 0  350000 1350000 0  400000 1350000 0  450000 1350000 0  500000 1350000 0  550000 1350000 0  600000 1350000 0  650000 1350000 0  700000 135
[...]
<PointData  Vectors="f_15"> 
<DataArray  type="Float64"  Name="f_15"  NumberOfComponents="3" format="ascii">-3.1604523568791879e-10 3.0487696577122506e-10 0.0000000000000000e+00  -5.8886729477831425e-10 2.5153777253304808e-10 0.0000000000000000e+00  -1.0742211553525933e-09 2.2841609109262758e-10 0.0000000000000000e+00  -1.5433365023271019e-09 2.0813811030140026e-10 0.0000000000000000e+00  -1.9728768624209252e-09 1.8484937188364866e-10 0.0000000000000000e+00  -2.3502915029783476e-09 1.5787795322756116e-10 0.0000000000000000e+00  -2.6653871312439265e-09 1.2746922877075208e-10 0.0000000000000000e+00  -2.9099229793779389e-09 9.4189984887650673e-11 0.0000000000000000e+00  -3.0775990883293831e-09 5.8781251852779340e-11 0.0000000000000000e+00  -3.1641654788639026e-09 2.2085436762849064e-11 0.0000000000000000e+00  -3.1675127058710856e-09 -1.4999914956912901e-11 0.0000000000000000e+00  -3.0877156151834287e-09 -5.1557464064161657e-11 0.0000000000000000e+00  -2.9270249743152856e-09 -8.6681098270420702e-11 0.0000000000000000e+00  -2.6898069423621109e-09 -1.1950600507151796e-10 0.0000000000000000e+00  -2.3824411165153353e-09 -1.4924205093498112e-10 0.0000000000000000e+00  -2.0132433178699469e-09 -1.7522445709298466e-10 0.0000000000000000e+00  -1.5927603444684959e-09 -1.9703352488608563e-10 0.0000000000000000e+00  -1.1360289772066494e-09 -2.1482741959148166e-10 0.0000000000000000e+00  -6.7327183390992071e-10 -2.2901615409820207e-10 0.0000000000000000e+00  -2.9535828591682746e-10 -2.2169340893400793e-10 0.0000000000000000e+00  -1.3612753089556558e-10 -1.3849341338020207e-10 0.0000000000000000e+00  -2.6846207561481307e-10 5.5649271640919793e-10 0.0000000000000000e+00  -4.9579029705315841e-10 4.9032446030677506e-10 0.0000000000000000e+00  -8.8283388043577752e-10 5.0125260337620581e-10 0.0000000000000000e+00  -1.3058111398520794e-09 4.7763643115140422e-10 0.0000000000000000e+00  -1.7090689798060751e-09 4.3509211913682450e-10 0.0000000000000000e+00  -2.0725310739577797e-09 3.7893000078744038e-10 0.0000000000000000e+00  -2.3840656368136428e-09 3.1199597693997932e-10 0.0000000000000000e+00  -2.6345003504229507e-09 2.3658601519622124e-10 0.0000000000000000e+00  -2.8168517228976357e-09 1.5492480334915752e-10 0.0000000000000000e+00  -2.9261985952013603e-09 6.9278787978061300e-11 0.0000000000000000e+00  -2.9596870041899378e-09 -1.8036719167323247e-11 0.0000000000000000e+00  -2.9165493054248846e-09 -1.0468648870528191e-10 0.0000000000000000e+00  -2.7981039349656835e-09 -1.8835593034348153e-10 0.0000000000000000e+00  -2.6077284517721447e-09 -2.6679158064193912e-10 0.0000000000000000e+00  -2.3508162427364290e-09 -3.3783097345294396e-10 0.0000000000000000e+00  -2.0347656266701474e-09 -3.9940220941905752e-10 0.0000000000000000e+00  -1.6691857021752627e-09 -4.4942995052730490e-10 0.0000000000000000e+00  -1.2670587107928615e-09 -4.8533278375638794e-10 0.0000000000000000e+00  -8.4994611227896167e-10 -5.0119728127021417e-10 0.0000000000000000e+00  -4.7002703749294546e-10 -4.7405116791269934e-10 0.0000000000000000e+00  -2.2694116855188050e-10 -2.8617721027074316e-10 0.0000000000000000e+00  -2.6400930396887879e-10 1.0025505779979166e-09 0.0000000000000000e+00  -5.0673923819379982e-10 8.6624190606121162e-10 0.0000000000000000e+00  -8.7717656751999402e-10 8.6948817701508053e-10 0.0000000000000000e+00  -1.2679992960195597e-09 8.3240038436390886e-10 0.0000000000000000e+00  -1.6404944031809662e-09 7.6258990066371754e-10 0.0000000000000000e+00  -1.9775331944188756e-09 6.6740320871290368e-10 0.0000000000000000e+00  -2.2672230125845291e-09 5.5215701208227747e-10 0.0000000000000000e+00  -2.5005602832589678e-09 4.2123650381705389e-10 0.0000000000000000e+00  -2.6707251149571973e-09 2.7877784530555618e-10 0.0000000000000000e+00  -2.7729304841753281e-09 1.2890879310738641e-10 0.0000000000000000e+00  -2.8044015205126829e-09 -2.4199360250243926e-11 0.0000000000000000e+00  -2.7643768184158009e-09 -1.7635598059738886e-10 0.0000000000000000e+00  -2.6541015682848600e-09 -3.2340278823218062e-10 0.0000000000000000e+00  -2.4768046716883103e-09 -4.6126603060025524e-10 0.0000000000000000e+00  -2.2376678996862143e-09 -5.8598336385842259e-10 0.0000000000000000e+00  -1.9438250875900512e-09 -6.9366085225736330e-10 0.0000000000000000e+00  -1.6045250250624663e-09 -7.8025386388232929e-10 0.0000000000000000e+00  -1.2319549080580078e-09 -8.4089220838332761e-10 0.0000000000000000e+00  -8.4460393635321900e-10 -8.6798973690831589e-10 0.0000000000000000e+00  -4.8345008024433640e-10 -8.4788862751905627e-10 0.0000000000000000e+00  -2.4161685454984215e-10 -6.3253675769069579e-10 0.0000000000000000e+00  -2.7387026427834747e-10 1.4416780209460930e-09 0.0000000000000000e+00  -5.0406917453717274e-10 1.2848467748963240e-09 0.0000000000000000e+00  -8.6811519703411870e-10 1.2629112210095301e-09 0.0000000000000000e+00  -1.2473917418994824e-09 1.2032785133938865e-09 0.0000000000000000e+00  -1.6046029196178217e-09 1.1027365404846395e-09 0.0000000000000000e+00  -1.9258427845996276e-09 9.6689117871689237e-10 0.0000000000000000e+00  -2.2012704564913271e-09 8.0200388125754918e-10 0.0000000000000000e+00  -2.4228083588943287e-09 6.1411231964497311e-10 0.0000000000000000e+00  -2.5841070401090085e-09 4.0918164649385356e-10 0.0000000000000000e+00  -2.6806450836536839e-09 1.9322794743243816e-10 0.0000000000000000e+00  -2.7097919535986271e-09 -2.7661047979009803e-11 0.0000000000000000e+00  -2.6708367401158903e-09 -2.4736982680819256e-10 0.0000000000000000e+00  -2.5649876053418591e-09 -4.5982750194187120e-10 0.0000000000000000e+00  -2.3953441101956890e-09 -6.5908206089201403e-10 0.0000000000000000e+00  -2.1668450829742642e-09 -8.3935138614391093e-10 0.0000000000000000e+00  -1.8862051760566223e-09 -9.9502001560557573e-10 0.0000000000000000e+00  -1.5619096162257608e-09 -1.1205451263216875e-09 0.0000000000000000e+00  -1.2046320941918538e-09 -1.2102744894410082e-09 0.0000000000000000e+00  -8.2993949462399270e-10 -1.2582380192736968e-09 0.0000000000000000e+00  -4.7585178845051098e-10 -1.2572712525281108e-09 0.0000000000000000e+00  -2.4458525918615789e-10 -1.0537957441862356e-09 0.0000000000000000e+00  -2.9133301512700935e-10 1.8715736247983328e-09 0.0000000000000000e+00  -5.0443360979537293e-10 1.7043360133405509e-09 0.0000000000000000e+00  -8.6369754388669735e-10 1.6593248486620760e-09 0.0000000000000000e+00  -1.2390373990688367e-09 1.5727978220313130e-09 0.0000000000000000e+00  -1.5906065654384606e-09 1.4389727026866653e-09 0.0000000000000000e+00  -1.9048657438307320e-09 1.2618001409464831e-09 0.0000000000000000e+00  -2.1730917738152012e-09 1.0476855401816748e-09 0.0000000000000000e+00  -2.3881252871201728e-09 8.0378647264796547e-10 0.0000000000000000e+00  -2.5441935972661151e-09 5.3762071412558296e-10 0.0000000000000000e+00  -2.6371151567392698e-09 2.5694834108133690e-10 0.0000000000000000e+00  -2.6644465998124674e-09 -3.0313854687856752e-11 0.0000000000000000e+00  -2.6255520189455186e-09 -3.1619267281831723e-10 0.0000000000000000e+00  -2.5216160580411623e-09 -5.9277218053406534e-10 0.0000000000000000e+00  -2.3556111375723229e-09 -8.5230995024316630e-10 0.0000000000000000e+00  -2.1322197541740529e-09 -1.0873456152955235e-09 0.0000000000000000e+00  -1.8577168247870917e-09 -1.2907997501973622e-09 0.0000000000000000e+00  -1.5398848837186375e-09 -1.4560912833330041e-09 0.0000000000000000e+00  -1.1884309140690562e-09 -1.5773789086007275e-09 0.0000000000000000e+00  -8.1829406820580866e-10 -1.6498863524251172e-09 0.0000000000000000e+00  -4.6976779326055066e-10 -1.6683114478018373e-09 0.0000000000000000e+00  -2.5507139656491166e-10 -1.4791935148033479e-09 0.0000000000000000e+00  -3.1510353960802773e-10 2.2975939916286689e-09 0.0000000000000000e+00  -5.1049136263228705e-10 2.1218828003593175e-09 0.0000000000000000e+00  -8.6708937080322809e-10 2.0568497996268641e-09 0.0000000000000000e+00  -1.2427555772930158e-09 1.9423955803047379e-09 0.0000000000000000e+00  -1.5943642146690450e-09 1.7735778030677014e-09 0.0000000000000000e+00  -1.9075863092344108e-09 1.5540210637409944e-09 0.0000000000000000e+00  -2.1739136613906066e-09 1.2903920330338349e-09 0.0000000000000000e+00  -2.3866727336713468e-09 9.9076454920728945e-10 0.0000000000000000e+00  -2.5405257154171387e-09 6.6400639142755090e-10 0.0000000000000000e+00  -2.6316003611345748e-09 3.1947118940356583e-10 0.0000000000000000e+00  -2.6576427850328071e-09 -3.3207508158127223e-11 0.0000000000000000e+00  -2.6181034596158983e-09 -3.8429293997942568e-10 0.0000000000000000e+00  -2.5141595222625829e-09 -7.2411623969850660e-10 0.0000000000000000e+00  -2.3486819430448173e-09 -1.0432492792982489e-09 0.0000000000000000e+00  -2.1261504071133507e-09 -1.3326852742257900e-09 0.0000000000000000e+00  -1.8525307992490069e-09 -1.5840434905316160e-09 0.0000000000000000e+00  -1.5352306163152174e-09 -1.7898396149234442e-09 0.0000000000000000e+00  -1.1837422132400971e-09 -1.9438859416578194e-09 0.0000000000000000e+00  -8.1372037141625021e-10 -2.0415445488412194e-09 0.0000000000000000e+00  -4.6902975263985243e-10 -2.0774049293125105e-09 0.0000000000000000e+00  -2.7215613222322687e-10 -1.8983143716749821e-09 0.0000000000000000e+00  -3.4475168364455262e-10 2.7245926110199177e-09 0.0000000000000000e+00  -5.2209929431314722e-10 2.5408095670743217e-09 0.0000000000000000e+00  -8.7825046183195134e-10 2.4573992410648757e-09 0.0000000000000000e+00  -1.2572329200555892e-09 2.3151450530709075e-09 0.0000000000000000e+00  -1.6124154884946618e-09 2.1103289543827645e-09 0.0000000000000000e+00  -1.9283611251156168e-09 1.8472446876573487e-09 0.0000000000000000e+00  -2.1963222250417879e-09 1.5332346363083927e-09 0.0000000000000000e+00  -2.4097525536044563e-09 1.1773589608867623e-09 0.0000000000000000e+00  -2.5635506685160117e-09 7.8977729066864582e-10 0.0000000000000000e+00  -2.6540654420272237e-09 3.8134784355341806e-10 0.0000000000000000e+00  -2.6792024315628662e-09 -3.6668560838902754e-11 0.0000000000000000e+00  -2.6384969401766452e-09 -4.5285642100255350e-10 0.0000000000000000e+00  -2.5331358506623807e-09 -8.5587550045704506e-10 0.0000000000000000e+00  -2.3659301917271835e-09 -1.2346911493600488e-09 0.0000000000000000e+00  -2.1412434016007808e-09 -1.5788209733204410e-09 0.0000000000000000e+00  -1.8649035428609730e-09 -1.8786182351062914e-09 0.0000000000000000e+00  -1.5442531430093189e-09 -2.1256189947818742e-09 0.0000000000000000e+00  -1.1890422448545163e-09 -2.3129578497753903e-09 0.0000000000000000e+00  -8.1614971150759185e-10 -2.4354611921774077e-09 0.0000000000000000e+00  -4.7340537718035090e-10 -2.4869949994424785e-09 0.0000000000000000e+00  -2.9496671853891406e-10 -2.3135914377104520e-09 0.0000000000000000e+00  -3.8012854071315089e-10 3.1562128037951765e-09 0.0000000000000000e+00  -5.3827108476572210e-10 2.9644073437926928e-09 0.0000000000000000e+00  -8.9552058326605453e-10 2.8634523278631434e-09 0.0000000000000000e+00  -1.2797959651012878e-09 2.6935102020254086e-09 0.0000000000000000e+00  -1.6406356428179039e-09 2.4519750914490040e-09 0.0000000000000000e+00  -1.9614289730380384e-09 2.1442349526295622e-09 0.0000000000000000e+00  -2.2330327659738889e-09 1.7786717566497965e-09 0.0000000000000000e+00  -2.4488433523831245e-09 1.3655082573727644e-09 0.0000000000000000e+00  -2.6038573467533233e-09 9.1623952999201958e-10 0.0000000000000000e+00  -2.6945670392689735e-09 4.4320415736825907e-10 0.0000000000000000e+00  -2.7190036900302499e-09 -4.0763672487542602e-11 0.0000000000000000e+00  -2.6767803516046361e-09 -5.2263318644284991e-10 0.0000000000000000e+00  -2.5691057821922956e-09 -9.8945337372377361e-10 0.0000000000000000e+00  -2.3987664184215725e-09 -1.4286291723222718e-09 0.0000000000000000e+00  -2.1700818919741289e-09 -1.8282175956941471e-09 0.0000000000000000e+00  -1.8888700732020604e-09 -2.1772616269867597e-09 0.0000000000000000e+00  -1.5625978225191202e-09 -2.4661721064488616e-09 0.0000000000000000e+00  -1.2014898435549750e-09 -2.6871283379046908e-09 0.0000000000000000e+00  -8.2382778534752080e-10 -2.8340798872644661e-09 0.0000000000000000e+00  -4.8176893552800447e-10 -2.9000192578891460e-09 0.0000000000000000e+00  -3.2316883559378681e-10 -2.7290696522777959e-09 0.0000000000000000e+00  -4.2123841788162253e-10 3.5945670425394201e-09 0.0000000000000000e+00  -5.5765387691852883e-10 3.3949176006933578e-09 0.0000000000000000e+00  -9.1638117886878231e-10 3.2767328462638566e-09 0.0000000000000000e+00  -1.3067318458278373e-09 3.0789486901420353e-09 0.0000000000000000e+00  -1.6739742592315082e-09 2.7999598508819783e-09 0.0000000000000000e+00  -2.0003085942693734e-09 2.4464221892378998e-09 0.0000000000000000e+00  -2.2761875909321349e-09 2.0280042378692869e-09 0.0000000000000000e+00  -2.4949075680967713e-09 1.5562682191437603e-09 0.0000000000000000e+00  -2.6515182187988042e-09 1.0441294041136769e-09 0.0000000000000000e+00  -2.7426268459663988e-09 5.0542029763594737e-10 0.0000000000000000e+00  -2.7663778605914322e-09 -4.5481301188237294e-11 0.0000000000000000e+00  -2.7224583127294965e-09 -5.9397798265441416e-10 0.0000000000000000e+00  -2.6121003762813377e-09 -1.1255544200288942e-09 0.0000000000000000e+00  -2.4380761471914302e-09 -1.6260798551679974e-09 0.0000000000000000e+00  -2.2046889273052840e-09 -2.0821341529522777e-09 0.0000000000000000e+00  -1.9177980290914073e-09 -2.4813732121848137e-09 0.0000000000000000e+00  -1.5850650398060138e-09 -2.8129343574806276e-09 0.0000000000000000e+00  -1.2172571919258412e-09 -3.0678400518826060e-09 0.0000000000000000e+00  -8.3414236443432061e-10 -3.2389890594153406e-09 0.0000000000000000e+00  -4.9265261125341799e-10 -3.3184847220285631e-09 0.0000000000000000e+00  -3.5665125336692499e-10 -3.1478323828773409e-09 0.0000000000000000e+00  -4.6817852867748233e-10 4.0400291036662939e-09 0.0000000000000000e+00  -5.7862964582475570e-10 3.8331393128805323e-09 0.0000000000000000e+00  -9.3768486271937069e-10 3.6976829284262628e-09 0.0000000000000000e+00  -1.3334143377298381e-09 3.4716349262857624e-09 0.0000000000000000e+00  -1.7063243532362038e-09 3.1543470172905554e-09 0.0000000000000000e+00  -2.0374170765451611e-09 2.7538532936400831e-09 0.0000000000000000e+00  -2.3168113355363735e-09 2.2812830179251825e-09 0.0000000000000000e+00  -2.5377652404745733e-09 1.7496882413723367e-09 0.0000000000000000e+00  -2.6954288835409572e-09 1.1734904031329395e-09 0.0000000000000000e+00  -2.7865609053179014e-09 5.6803560106691542e-10 0.0000000000000000e+00  -2.8094421037450772e-09 -5.0784008462792746e-11 0.0000000000000000e+00  -2.7638391588404485e-09 -6.6685779696225802e-10 0.0000000000000000e+00  -2.6509944296379206e-09 -1.2641572491297198e-09 0.0000000000000000e+00  -2.4736380843782015e-09 -1.8270398299474089e-09 0.0000000000000000e+00  -2.2360238371530967e-09 -2.3405845794290042e-09 0.0000000000000000e+00  -1.9440214468863686e-09 -2.7909775501913842e-09 0.0000000000000000e+00  -1.6054608511081387e-09 -3.1659456201095714e-09 0.0000000000000000e+00  -1.2316344709650113e-09 -3.4551954187456233e-09 0.0000000000000000e+00  -8.4385487155508210e-10 -3.6504600765703638e-09 0.0000000000000000e+00  -5.0433334409695407e-10 -3.7429609465480826e-09 0.0000000000000000e+00  -3.9541110042109193e-10 -3.5714025988760074e-09 0.0000000000000000e+00  -5.2110599218576510e-10 4.4909839444999985e-09 0.0000000000000000e+00  -5.9929490589895708e-10 4.2781137410049661e-09 0.0000000000000000e+00  -9.5565080010531079e-10 4.1251004187704762e-09 0.0000000000000000e+00  -1.3542466187861118e-09 3.8701568217674295e-09 0.0000000000000000e+00  -1.7303283521772033e-09 3.5136347912016296e-09 0.0000000000000000e+00  -2.0637063522536769e-09 3.0650697364791509e-09 0.0000000000000000e+00  -2.3442975333737143e-09 2.5372059405470959e-09 0.0000000000000000e+00  -2.5654726970640488e-09 1.9447153059856932e-09 0.0000000000000000e+00  -2.7226199042360120e-09 1.3035940793626768e-09 0.0000000000000000e+00  -2.8127577009935868e-09 6.3070071620774716e-10 0.0000000000000000e+00  -2.8343707533932415e-09 -5.6615602110422571e-11 0.0000000000000000e+00  -2.7873236177609456e-09 -7.4081730177173795e-10 0.0000000000000000e+00  -2.6728366713683328e-09 -1.4044453125941098e-09 0.0000000000000000e+00  -2.4935227352172368e-09 -2.0303931845335922e-09 0.0000000000000000e+00  -2.2534811956335108e-09 -2.6022289647557723e-09 0.0000000000000000e+00  -1.9584751173730487e-09 -3.1045916300768686e-09 0.0000000000000000e+00  -1.6163906091248037e-09 -3.5236645114372675e-09 0.0000000000000000e+00  -1.2389649382401827e-09 -3.8476846270897402e-09 0.0000000000000000e+00  -8.4909807509632777e-10 -4.0671032649024892e-09 0.0000000000000000e+00  -5.1480698585316940e-10 -4.1722518997853650e-09 0.0000000000000000e+00  -4.3951051374826401e-10 -3.9994902535611944e-09 0.0000000000000000e+00  -5.8021867362874763e-10 4.9434957163866547e-09 0.0000000000000000e+00  -6.1739369158363819e-10 4.7267824908378630e-09 0.0000000000000000e+00  -9.6575270646404026e-10 4.5557652123762962e-09 0.0000000000000000e+00  -1.3624816699215506e-09 4.2711546952315936e-09 0.0000000000000000e+00  -1.7370907694381437e-09 3.8744472525844786e-09 0.0000000000000000e+00  -2.0682408910365941e-09 3.3768551957040974e-09 0.0000000000000000e+00  -2.3458510585792283e-09 2.7929104580626094e-09 0.0000000000000000e+00  -2.5636512892763796e-09 2.1390288588165507e-09 0.0000000000000000e+00  -2.7175040088956490e-09 1.4328240519486223e-09 0.0000000000000000e+00  -2.8048787142913867e-09 6.9262077982562939e-10 0.0000000000000000e+00  -2.8245836205633280e-09 -6.2892143712317594e-11 0.0000000000000000e+00  -2.7766139674328616e-09 -8.1490419244259518e-10 0.0000000000000000e+00  -2.6621115322373044e-09 -1.5446735116047566e-09 0.0000000000000000e+00  -2.4834368980671057e-09 -2.2337300133186219e-09 0.0000000000000000e+00  -2.2443449553453028e-09 -2.8641530950498262e-09 0.0000000000000000e+00  -1.9502775136204511e-09 -3.4189675745288353e-09 0.0000000000000000e+00  -1.6089733793612042e-09 -3.8826697543911575e-09 0.0000000000000000e+00  -1.2324686584031524e-09 -4.2418457529621070e-09 0.0000000000000000e+00  -8.4526824808389534e-10 -4.4855086771487776e-09 0.0000000000000000e+00  -5.2171960808926992e-10 -4.6030598655722069e-09 0.0000000000000000e+00  -4.8905483130863643e-10 -4.4297319236901107e-09 0.0000000000000000e+00  -6.4574552055471421e-10 5.3908766298887111e-09 0.0000000000000000e+00  -6.3022731284423574e-10 5.1735739797594789e-09 0.0000000000000000e+00  -9.6254759594346844e-10 4.9839997169507961e-09 0.0000000000000000e+00  -1.3499576168716436e-09 4.6688748109834755e-09 0.0000000000000000e+00  -1.7157985532574502e-09 4.2311082703229406e-09 0.0000000000000000e+00  -2.0376852001231233e-09 3.6838507426446121e-09 0.0000000000000000e+00  -2.3058404164417070e-09 3.0436435665077903e-09 0.0000000000000000e+00  -2.5147197956420061e-09 2.3287785721617819e-09 0.0000000000000000e+00  -2.6610173571129653e-09 1.5584959102999304e-09 0.0000000000000000e+00  -2.7429450124020285e-09 7.5247004227395255e-10 0.0000000000000000e+00  -2.7598175327772627e-09 -6.9485695993233528e-11 0.0000000000000000e+00  -2.7118102274221445e-09 -8.8755250967963855e-10 0.0000000000000000e+00  -2.5998973665471010e-09 -1.6819604723910513e-09 0.0000000000000000e+00  -2.4259764916094373e-09 -2.4330629378826473e-09 0.0000000000000000e+00  -2.1931604806855379e-09 -3.1215265925100564e-09 0.0000000000000000e+00  -1.9062346736520081e-09 -3.7287082242736129e-09 0.0000000000000000e+00  -1.5724748121505196e-09 -4.2372466303165659e-09 0.0000000000000000e+00  -1.2039866144246376e-09 -4.6318362284181717e-09 0.0000000000000000e+00  -8.2685736785376114e-10 -4.8998208296311125e-09 0.0000000000000000e+00  -5.2227465390253776e-10 -5.0295822061760888e-09 0.0000000000000000e+00  -5.4417935423868044e-10 -4.8573498457113547e-09 0.0000000000000000e+00  -7.1794696267310331e-10 5.8231413640989178e-09 0.0000000000000000e+00  -6.3454836368660852e-10 5.6098917594331666e-09 0.0000000000000000e+00  -9.3946171060568496e-10 5.4011313369421330e-09 0.0000000000000000e+00  -1.3067624024727134e-09 5.0546119016890713e-09 0.0000000000000000e+00  -1.6532478746965442e-09 4.5750858327692195e-09 0.0000000000000000e+00  -1.95568049