<?xml version="1.0"?>
<VTKFile type="UnstructuredGrid"  version="0.1"  >
<UnstructuredGrid>
<Piece  NumberOfPoints="651" NumberOfCells="1200">
<Points>
<DataArray  type="Float64"  NumberOfComponents="3"  format="ascii">0 0 0  50000 0 0  100000 0 0  150000 0 0  200000 0 0  250000 0 0  300000 0 0  350000 0 0  400000 0 0  450000 0 0  500000 0 0  550000 0 0  600000 0 0  650000 0 0  700000 0 0  750000 0 0  800000 0 0  850000 0 0  900000 0 0  950000 0 0  1000000 0 0  0 50000 0  50000 50000 0  100000 50000 0  150000 50000 0  200000 50000 0  250000 50000 0  300000 50000 0  350000 50000 0  400000 50000 0  450000 50000 0  500000 50000 0  550000 50000 0  600000 50000 0  650000 50000 0  700000 50000 0  750000 50000 0  800000 50000 0  850000 50000 0  900000 50000 0  950000 50000 0  1000000 50000 0  0 100000 0  50000 100000 0  100000 100000 0  150000 100000 0  200000 100000 0  250000 100000 0  300000 100000 0  350000 100000 0  400000 100000 0  450000 100000 0  500000 100000 0  550000 100000 0  600000 100000 0  650000 100000 0  700000 100000 0  750000 100000 0  800000 100000 0  850000 100000 0  900000 100000 0  950000 100000 0  1000000 100000 0  0 150000 0  50000 150000 0  100000 150000 0  150000 150000 0  200000 150000 0  250000 150000 0  300000 150000 0  350000 150000 0  400000 150000 0  450000 150000 0  500000 150000 0  550000 150000 0  600000 150000 0  650000 150000 0  700000 150000 0  750000 150000 0  800000 150000 0  850000 150000 0  900000 150000 0  950000 150000 0  1000000 150000 0  0 200000 0  50000 200000 0  100000 200000 0  150000 200000 0  200000 200000 0  250000 200000 0  300000 200000 0  350000 200000 0  400000 200000 0  450000 200000 0  500000 200000 0  550000 200000 0  600000 200000 0  650000 200000 0  700000 200000 0  750000 200000 0  800000 200000 0  850000 200000 0  900000 200000 0  950000 200000 0  1000000 200000 0  0 250000 0  50000 250000 0  100000 250000 0  150000 250000 0  200000 250000 0  250000 250000 0  300000 250000 0  350000 250000 0  400000 250000 0  450000 250000 0  500000 250000 0  550000 250000 0  600000 250000 0  650000 250000 0  700000 250000 0  750000 250000 0  800000 250000 0  850000 250000 0  900000 250000 0  950000 250000 0  1000000 250000 0  0 300000 0  50000 300000 0  100000 300000 0  150000 300000 0  200000 300000 0  250000 300000 0  300000 300000 0  350000 300000 0  400000 300000 0  450000 300000 0  500000 300000 0  550000 300000 0  600000 300000 0  650000 300000 0  700000 300000 0  750000 300000 0  800000 300000 0  850000 300000 0  900000 300000 0  950000 300000 0  1000000 300000 0  0 350000 0  50000 350000 0  100000 350000 0  150000 350000 0  200000 350000 0  250000 350000 0  300000 350000 0  350000 350000 0  400000 350000 0  450000 350000 0  500000 350000 0  550000 350000 0  600000 350000 0  650000 350000 0  700000 350000 0  750000 350000 0  800000 350000 0  850000 350000 0  900000 350000 0  950000 350000 0  1000000 350000 0  0 400000 0  50000 400000 0  100000 400000 0  150000 400000 0  200000 400000 0  250000 400000 0  300000 400000 0  350000 400000 0  400000 400000 0  450000 400000 0  500000 400000 0  550000 400000 0  600000 400000 0  650000 400000 0  700000 400000 0  750000 400000 0  800000 400000 0  850000 400000 0  900000 400000 0  950000 400000 0  1000000 400000 0  0 450000 0  50000 450000 0  100000 450000 0  150000 450000 0  200000 450000 0  250000 450000 0  300000 450000 0  350000 450000 0  400000 450000 0  450000 450000 0  500000 450000 0  550000 450000 0  600000 450000 0  650000 450000 0  700000 450000 0  750000 450000 0  800000 450000 0  850000 450000 0  900000 450000 0  950000 450000 0  1000000 450000 0  0 500000 0  50000 500000 0  100000 500000 0  150000 500000 0  200000 500000 0  250000 500000 0  300000 500000 0  350000 500000 0  400000 500000 0  450000 500000 0  500000 500000 0  550000 500000 0  600000 500000 0  650000 500000 0  700000 500000 0  750000 500000 0  800000 500000 0  850000 500000 0  900000 500000 0  950000 500000 0  1000000 500000 0  0 550000 0  50000 550000 0  100000 550000 0  150000 550000 0  200000 550000 0  250000 550000 0  300000 550000 0  350000 550000 0  400000 550000 0  450000 550000 0  500000 550000 0  550000 550000 0  600000 550000 0  650000 550000 0  700000 550000 0  750000 550000 0  800000 550000 0  850000 550000 0  900000 550000 0  950000 550000 0  1000000 550000 0  0 600000 0  50000 600000 0  100000 600000 0  150000 600000 0  200000 600000 0  250000 600000 0  300000 600000 0  350000 600000 0  400000 600000 0  450000 600000 0  500000 600000 0  550000 600000 0  600000 600000 0  650000 600000 0  700000 600000 0  750000 600000 0  800000 600000 0  850000 600000 0  900000 600000 0  950000 600000 0  1000000 600000 0  0 650000 0  50000 650000 0  100000 650000 0  150000 650000 0  200000 650000 0  250000 650000 0  300000 650000 0  350000 650000 0  400000 650000 0  450000 650000 0  500000 650000 0  550000 650000 0  600000 650000 0  650000 650000 0  700000 650000 0  750000 650000 0  800000 650000 0  850000 650000 0  900000 650000 0  950000 650000 0  1000000 650000 0  0 700000 0  50000 700000 0  100000 700000 0  150000 700000 0  200000 700000 0  250000 700000 0  300000 700000 0  350000 700000 0  400000 700000 0  450000 700000 0  500000 700000 0  550000 700000 0  600000 700000 0  650000 700000 0  700000 700000 0  750000 700000 0  800000 700000 0  850000 700000 0  900000 700000 0  950000 700000 0  1000000 700000 0  0 750000 0  50000 750000 0  100000 750000 0  150000 750000 0  200000 750000 0  250000 750000 0  300000 750000 0  350000 750000 0  400000 750000 0  450000 750000 0  500000 750000 0  550000 750000 0  600000 750000 0  650000 750000 0  700000 750000 0  750000 750000 0  800000 750000 0  850000 750000 0  900000 750000 0  950000 750000 0  1000000 750000 0  0 800000 0  50000 800000 0  100000 800000 0  150000 800000 0  200000 800000 0  250000 800000 0  300000 800000 0  350000 800000 0  400000 800000 0  450000 800000 0  500000 800000 0  550000 800000 0  600000 800000 0  650000 800000 0  700000 800000 0  750000 800000 0  800000 800000 0  850000 800000 0  900000 800000 0  950000 800000 0  1000000 800000 0  0 850000 0  50000 850000 0  100000 850000 0  150000 850000 0  200000 850000 0  250000 850000 0  300000 850000 0  350000 850000 0  400000 850000 0  450000 850000 0  500000 850000 0  550000 850000 0  600000 850000 0  650000 850000 0  700000 850000 0  750000 850000 0  800000 850000 0  850000 850000 0  900000 850000 0  950000 850000 0  1000000 850000 0  0 900000 0  50000 900000 0  100000 900000 0  150000 900000 0  200000 900000 0  250000 900000 0  300000 900000 0  350000 900000 0  400000 900000 0  450000 900000 0  500000 900000 0  550000 900000 0  600000 900000 0  650000 900000 0  700000 900000 0  750000 900000 0  800000 900000 0  850000 900000 0  900000 900000 0  950000 900000 0  1000000 900000 0  0 950000 0  50000 950000 0  100000 950000 0  150000 950000 0  200000 950000 0  250000 950000 0  300000 950000 0  350000 950000 0  400000 950000 0  450000 950000 0  500000 950000 0  550000 950000 0  600000 950000 0  650000 950000 0  700000 950000 0  750000 950000 0  800000 950000 0  850000 950000 0  900000 950000 0  950000 950000 0  1000000 950000 0  0 1000000 0  50000 1000000 0  100000 1000000 0  150000 1000000 0  200000 1000000 0  250000 1000000 0  300000 1000000 0  350000 1000000 0  400000 1000000 0  450000 1000000 0  500000 1000000 0  550000 1000000 0  600000 1000000 0  650000 1000000 0  700000 1000000 0  750000 1000000 0  800000 1000000 0  850000 1000000 0  900000 1000000 0  950000 1000000 0  1000000 1000000 0  0 1050000 0  50000 1050000 0  100000 1050000 0  150000 1050000 0  200000 1050000 0  250000 1050000 0  300000 1050000 0  350000 1050000 0  400000 1050000 0  450000 1050000 0  500000 1050000 0  550000 1050000 0  600000 1050000 0  650000 1050000 0  700000 1050000 0  750000 1050000 0  800000 1050000 0  850000 1050000 0  900000 1050000 0  950000 1050000 0  1000000 1050000 0  0 1100000 0  50000 1100000 0  100000 1100000 0  150000 1100000 0  200000 1100000 0  250000 1100000 0  300000 1100000 0  350000 1100000 0  400000 1100000 0  450000 1100000 0  500000 1100000 0  550000 1100000 0  600000 1100000 0  650000 1100000 0  700000 1100000 0  750000 1100000 0  800000 1100000 0  850000 1100000 0  900000 1100000 0  950000 1100000 0  1000000 1100000 0  0 1150000 0  50000 1150000 0  100000 1150000 0  150000 1150000 0  200000 1150000 0  250000 1150000 0  300000 1150000 0  350000 1150000 0  400000 1150000 0  450000 1150000 0  500000 1150000 0  550000 1150000 0  600000 1150000 0  650000 1150000 0  700000 1150000 0  750000 1150000 0  800000 1150000 0  850000 1150000 0  900000 1150000 0  950000 1150000 0  1000000 1150000 0  0 1200000 0  50000 1200000 0  100000 1200000 0  150000 1200000 0  200000 1200000 0  250000 1200000 0  300000 1200000 0  350000 1200000 0  400000 1200000 0  450000 1200000 0  500000 1200000 0  550000 1200000 0  600000 1200000 0  650000 1200000 0  700000 1200000 0  750000 1200000 0  800000 1200000 0  850000 1200000 0  900000 1200000 0  950000 1200000 0  1000000 1200000 0  0 1250000 0  50000 1250000 0  100000 1250000 0  150000 1250000 0  200000 1250000 0  250000 1250000 0  300000 1250000 0  350000 1250000 0  400000 1250000 0  450000 1250000 0  500000 1250000 0  550000 1250000 0  600000 1250000 0  650000 1250000 0  700000 1250000 0  750000 1250000 0  800000 1250000 0  850000 1250000 0  900000 1250000 0  950000 1250000 0  1000000 1250000 0  0 1300000 0  50000 1300000 0  100000 1300000 0  150000 1300000 0  200000 1300000 0  250000 1300000 0  300000 1300000 0  350000 1300000 0  400000 1300000 0  450000 1300000 0  500000 1300000 0  550000 1300000 0  600000 1300000 0  650000 1300000 0  700000 1300000 0  750000 1300000 0  800000 1300000 0  850000 1300000 0  900000 1300000 0  950000 1300000 0  1000000 1300000 0  0 1350000 0  50000 1350000 0  100000 1350000 0  150000 1350000 0  200000 1350000 0  250000 1350000 0  300000 1350000 0  350000 1350000 0  400000 1350000 0  450000 1350000 0  500000 1350000 0  550000 1350000 0  600000 1350000 0  650000 1350000 0  700000 135
[...]
<PointData  Vectors="f_15"> 
<DataArray  type="Float64"  Name="f_15"  NumberOfComponents="3" format="ascii">-3.2100710283273209e-10 3.0466207534932158e-10 0.0000000000000000e+00  -6.0076043050914358e-10 2.5287459123670264e-10 0.0000000000000000e+00  -1.1007052065014851e-09 2.3323832287969357e-10 0.0000000000000000e+00  -1.5889421766422225e-09 2.1623655467688405e-10 0.0000000000000000e+00  -2.0398073819625924e-09 1.9550402811557026e-10 0.0000000000000000e+00  -2.4383583553921581e-09 1.7049164324391827e-10 0.0000000000000000e+00  -2.7723734788375492e-09 1.4152748487904732e-10 0.0000000000000000e+00  -3.0319907963059063e-09 1.0923011602209139e-10 0.0000000000000000e+00  -3.2097131681466439e-09 7.4385359604871368e-11 0.0000000000000000e+00  -3.3005288771073762e-09 3.7883987957865382e-11 0.0000000000000000e+00  -3.3020118218183201e-09 6.7750867736376256e-13 0.0000000000000000e+00  -3.2143709245110629e-09 -3.6260067413488950e-11 0.0000000000000000e+00  -3.0404425259232017e-09 -7.1968921165279270e-11 0.0000000000000000e+00  -2.7856267955255231e-09 -1.0554105772442718e-10 0.0000000000000000e+00  -2.4577815758094217e-09 -1.3616232181054574e-10 0.0000000000000000e+00  -2.0671404323816069e-09 -1.6316723256005705e-10 0.0000000000000000e+00  -1.6265835710146145e-09 -1.8612944357966202e-10 0.0000000000000000e+00  -1.1537580290888075e-09 -2.0502463357609078e-10 0.0000000000000000e+00  -6.8125992646027049e-10 -2.1942821369855796e-10 0.0000000000000000e+00  -2.9906560712600761e-10 -2.1275357922872443e-10 0.0000000000000000e+00  -1.3857508447904946e-10 -1.3068295444646747e-10 0.0000000000000000e+00  -2.7202631270866443e-10 5.6071839038055878e-10 0.0000000000000000e+00  -5.0894819408350271e-10 5.0524948853563419e-10 0.0000000000000000e+00  -9.1206332884978323e-10 5.2171674953170145e-10 0.0000000000000000e+00  -1.3563929771709587e-09 5.0053565307724968e-10 0.0000000000000000e+00  -1.7814375253547821e-09 4.5852514743436856e-10 0.0000000000000000e+00  -2.1649155321071228e-09 4.0108167800290322e-10 0.0000000000000000e+00  -2.4935021124978024e-09 3.3135272105329438e-10 0.0000000000000000e+00  -2.7571154385437635e-09 2.5197130358208441e-10 0.0000000000000000e+00  -2.9481236137833083e-09 1.6549531210683250e-10 0.0000000000000000e+00  -3.0612200300654112e-09 7.4519926507978646e-11 0.0000000000000000e+00  -3.0934173343871784e-09 -1.8313942792567379e-11 0.0000000000000000e+00  -3.0440594026692462e-09 -1.1034777257080291e-10 0.0000000000000000e+00  -2.9148203573915128e-09 -1.9894523144728581e-10 0.0000000000000000e+00  -2.7096838774577870e-09 -2.8153071777837145e-10 0.0000000000000000e+00  -2.4349146319079024e-09 -3.5561277833164722e-10 0.0000000000000000e+00  -2.0990721584406806e-09 -4.1876429828000849e-10 0.0000000000000000e+00  -1.7132442799078343e-09 -4.6848189034843697e-10 0.0000000000000000e+00  -1.2921732641815698e-09 -5.0164084290368804e-10 0.0000000000000000e+00  -8.5919059779005774e-10 -5.1200182728975965e-10 0.0000000000000000e+00  -4.6931133414126385e-10 -4.7858536229009451e-10 0.0000000000000000e+00  -2.3129608703092124e-10 -2.7495547044000925e-10 0.0000000000000000e+00  -2.6680579647072472e-10 1.0207608917976433e-09 0.0000000000000000e+00  -5.2644042948146875e-10 8.9955900194641402e-10 0.0000000000000000e+00  -9.1759474367410886e-10 9.1257555471453172e-10 0.0000000000000000e+00  -1.3315566655716048e-09 8.7762134253920014e-10 0.0000000000000000e+00  -1.7263789787973143e-09 8.0587539431517270e-10 0.0000000000000000e+00  -2.0828557798156303e-09 7.0582584136156401e-10 0.0000000000000000e+00  -2.3880291189737434e-09 5.8353772634851495e-10 0.0000000000000000e+00  -2.6324253543857161e-09 4.4401895417391492e-10 0.0000000000000000e+00  -2.8090580455291988e-09 2.9195539069239978e-10 0.0000000000000000e+00  -2.9131597247003301e-09 1.3197787033637255e-10 0.0000000000000000e+00  -2.9421072513982734e-09 -3.1268117591740968e-11 0.0000000000000000e+00  -2.8953944185699285e-09 -1.9313164502487071e-10 0.0000000000000000e+00  -2.7746157427669730e-09 -3.4899273644144776e-10 0.0000000000000000e+00  -2.5834527054529461e-09 -4.9429655135250914e-10 0.0000000000000000e+00  -2.3276694371551415e-09 -6.2455580955166171e-10 0.0000000000000000e+00  -2.0151516265146849e-09 -7.3527097142778846e-10 0.0000000000000000e+00  -1.6561111608250847e-09 -8.2165933544037314e-10 0.0000000000000000e+00  -1.2639624348411704e-09 -8.7793434678944138e-10 0.0000000000000000e+00  -8.5898375721382167e-10 -8.9538826618649161e-10 0.0000000000000000e+00  -4.8635567319806586e-10 -8.5926427159420150e-10 0.0000000000000000e+00  -2.4772066067249716e-10 -6.1355496823758244e-10 0.0000000000000000e+00  -2.7651048262742747e-10 1.4836587994855471e-09 0.0000000000000000e+00  -5.3074130576487922e-10 1.3406383718441560e-09 0.0000000000000000e+00  -9.1918788717471676e-10 1.3307823910173119e-09 0.0000000000000000e+00  -1.3231594490755093e-09 1.2725537079686060e-09 0.0000000000000000e+00  -1.7026979604073669e-09 1.1670651699557344e-09 0.0000000000000000e+00  -2.0424737092722040e-09 1.0222466590188137e-09 0.0000000000000000e+00  -2.3319333475709404e-09 8.4574827107749668e-10 0.0000000000000000e+00  -2.5628121107739679e-09 6.4458597764573233e-10 0.0000000000000000e+00  -2.7288860580743383e-09 4.2547985782600703e-10 0.0000000000000000e+00  -2.8259181669175826e-09 1.9506454787353886e-10 0.0000000000000000e+00  -2.8516239164201602e-09 -4.0035288523889360e-11 0.0000000000000000e+00  -2.8056465975112004e-09 -2.7320514740587266e-10 0.0000000000000000e+00  -2.6895376828006795e-09 -4.9787190306046016e-10 0.0000000000000000e+00  -2.5067401987984251e-09 -7.0753459678982118e-10 0.0000000000000000e+00  -2.2625751721168322e-09 -8.9576512230334374e-10 0.0000000000000000e+00  -1.9642412410663396e-09 -1.0561413762910813e-09 0.0000000000000000e+00  -1.6208980920541556e-09 -1.1820658757677365e-09 0.0000000000000000e+00  -1.2442385981135770e-09 -1.2664465036407749e-09 0.0000000000000000e+00  -8.5158206321758518e-10 -1.3012201588475623e-09 0.0000000000000000e+00  -4.8513071710371514e-10 -1.2767491286422933e-09 0.0000000000000000e+00  -2.5354368148361242e-10 -1.0299083781003754e-09 0.0000000000000000e+00  -2.9383458686209907e-10 1.9462431488207385e-09 0.0000000000000000e+00  -5.3776455984193712e-10 1.7882515465766071e-09 0.0000000000000000e+00  -9.2495069568460144e-10 1.7541544216516839e-09 0.0000000000000000e+00  -1.3264335136129171e-09 1.6664917419244562e-09 0.0000000000000000e+00  -1.7001772153215565e-09 1.5237695098151682e-09 0.0000000000000000e+00  -2.0318881780320296e-09 1.3329121180651466e-09 0.0000000000000000e+00  -2.3125882726122080e-09 1.1022964023486000e-09 0.0000000000000000e+00  -2.5352604972377374e-09 8.4041810760245570e-10 0.0000000000000000e+00  -2.6945268874175614e-09 5.5573410547897903e-10 0.0000000000000000e+00  -2.7867074296029088e-09 2.5668598946995599e-10 0.0000000000000000e+00  -2.8098577382737728e-09 -4.8285810673799355e-11 0.0000000000000000e+00  -2.7637709611913878e-09 -3.5075961060190682e-10 0.0000000000000000e+00  -2.6499644302972311e-09 -6.4236885799380475e-10 0.0000000000000000e+00  -2.4716588913185287e-09 -9.1484014438318108e-10 0.0000000000000000e+00  -2.2337483723636703e-09 -1.1600171387769328e-09 0.0000000000000000e+00  -1.9427622066571139e-09 -1.3698608274968150e-09 0.0000000000000000e+00  -1.6068905229771898e-09 -1.5364402846174704e-09 0.0000000000000000e+00  -1.2365598849183992e-09 -1.6519967322050999e-09 0.0000000000000000e+00  -8.4804702639135425e-10 -1.7090426677374973e-09 0.0000000000000000e+00  -4.8543170005990160e-10 -1.6996879322118913e-09 0.0000000000000000e+00  -2.6607045375900218e-10 -1.4581272122980901e-09 0.0000000000000000e+00  -3.1741088084814849e-10 2.4129931397904113e-09 0.0000000000000000e+00  -5.5004657041864738e-10 2.2391522302756156e-09 0.0000000000000000e+00  -9.3790209096573382e-10 2.1810284535878891e-09 0.0000000000000000e+00  -1.3410016772426210e-09 2.0608348245386306e-09 0.0000000000000000e+00  -1.7144078515225072e-09 1.8779599571517783e-09 0.0000000000000000e+00  -2.0436759564323401e-09 1.6393545176373598e-09 0.0000000000000000e+00  -2.3205820779332165e-09 1.3540697242588985e-09 0.0000000000000000e+00  -2.5390019423909267e-09 1.0318007372949230e-09 0.0000000000000000e+00  -2.6943014514739260e-09 6.8248330616380718e-10 0.0000000000000000e+00  -2.7833393528113836e-09 3.1615328704793324e-10 0.0000000000000000e+00  -2.8045109398332515e-09 -5.7119725441733041e-11 0.0000000000000000e+00  -2.7577619827815114e-09 -4.2728404296956599e-10 0.0000000000000000e+00  -2.6445813535253007e-09 -7.8435783026533526e-10 0.0000000000000000e+00  -2.4679808622958899e-09 -1.1184832065511774e-09 0.0000000000000000e+00  -2.2324623028016544e-09 -1.4199839726320331e-09 0.0000000000000000e+00  -1.9439806185841522e-09 -1.6794378795647922e-09 0.0000000000000000e+00  -1.6100095031668144e-09 -1.8877984069090186e-09 0.0000000000000000e+00  -1.2403235764250792e-09 -2.0366353166332384e-09 0.0000000000000000e+00  -8.5135709838349506e-10 -2.1182981700165646e-09 0.0000000000000000e+00  -4.9053598009702180e-10 -2.1250916305918603e-09 0.0000000000000000e+00  -2.8509222997310759e-10 -1.8878984935646238e-09 0.0000000000000000e+00  -3.4683402039803104e-10 2.8881365032822581e-09 0.0000000000000000e+00  -5.6741814321819382e-10 2.6962195575672992e-09 0.0000000000000000e+00  -9.5780935680482449e-10 2.6131229077473292e-09 0.0000000000000000e+00  -1.3651438173162104e-09 2.4584543752973736e-09 0.0000000000000000e+00  -1.7413028323609519e-09 2.2330651565223391e-09 0.0000000000000000e+00  -2.0713637989373957e-09 1.9448335793156507e-09 0.0000000000000000e+00  -2.3474555613970503e-09 1.6037643034332716e-09 0.0000000000000000e+00  -2.5640680198651461e-09 1.2207167854312727e-09 0.0000000000000000e+00  -2.7171789321309760e-09 8.0695927184553324e-10 0.0000000000000000e+00  -2.8041394674689854e-09 3.7394762796103513e-10 0.0000000000000000e+00  -2.8236744863460938e-09 -6.6797712926299483e-11 0.0000000000000000e+00  -2.7758830246405394e-09 -5.0377290174016612e-10 0.0000000000000000e+00  -2.6622297135957202e-09 -9.2555747012366976e-10 0.0000000000000000e+00  -2.4855307602577088e-09 -1.3208829060867546e-09 0.0000000000000000e+00  -2.2499365517140786e-09 -1.6787173590011124e-09 0.0000000000000000e+00  -1.9609314230827014e-09 -1.9883863061286966e-09 0.0000000000000000e+00  -1.6254925480230920e-09 -2.2397601345497987e-09 0.0000000000000000e+00  -1.2531227825617687e-09 -2.4235414713935940e-09 0.0000000000000000e+00  -8.6090812172157180e-10 -2.5313781732938844e-09 0.0000000000000000e+00  -5.0021286572092463e-10 -2.5551318583316285e-09 0.0000000000000000e+00  -3.0992849606349241e-10 -2.3209145494637345e-09 0.0000000000000000e+00  -3.8198618380578297e-10 3.3748914847616264e-09 0.0000000000000000e+00  -5.8887530888169817e-10 3.1622751777709385e-09 0.0000000000000000e+00  -9.8278655578614184e-10 3.0524414514614820e-09 0.0000000000000000e+00  -1.3956750312271279e-09 2.8613019596951402e-09 0.0000000000000000e+00  -1.7759274914562828e-09 2.5912234055596549e-09 0.0000000000000000e+00  -2.1081066370067282e-09 2.2514417382181882e-09 0.0000000000000000e+00  -2.3845977010996294e-09 1.8531903617933677e-09 0.0000000000000000e+00  -2.6003981945531770e-09 1.4085607043188501e-09 0.0000000000000000e+00  -2.7520329601177293e-09 9.3008772362382545e-10 0.0000000000000000e+00  -2.8373223644055073e-09 4.3051351497897078e-10 0.0000000000000000e+00  -2.8553182512558255e-09 -7.7355613729279960e-11 0.0000000000000000e+00  -2.8062739542204737e-09 -5.8073992541487945e-10 0.0000000000000000e+00  -2.6916281310511740e-09 -1.0669546450369765e-09 0.0000000000000000e+00  -2.5140014447541891e-09 -1.5234802568188934e-09 0.0000000000000000e+00  -2.2772089065536849e-09 -1.9380568501871894e-09 0.0000000000000000e+00  -1.9863164460185815e-09 -2.2988247818847988e-09 0.0000000000000000e+00  -1.6479086636494605e-09 -2.5945337900620318e-09 0.0000000000000000e+00  -1.2713633574835901e-09 -2.8148312567052599e-09 0.0000000000000000e+00  -8.7458643052678821e-10 -2.9503416952209794e-09 0.0000000000000000e+00  -5.1332984033661964e-10 -2.9922003796037165e-09 0.0000000000000000e+00  -3.4028139934179142e-10 -2.7604709031898921e-09 0.0000000000000000e+00  -4.2288536521216739e-10 3.8750590648656530e-09 0.0000000000000000e+00  -6.1300683854443263e-10 3.6389915569296913e-09 0.0000000000000000e+00  -1.0100276569771570e-09 3.4999706196747325e-09 0.0000000000000000e+00  -1.4282750169600836e-09 3.2699835389235278e-09 0.0000000000000000e+00  -1.8122806923346960e-09 2.9529457908398922e-09 0.0000000000000000e+00  -2.1461515592269650e-09 2.5596531564252347e-09 0.0000000000000000e+00  -2.4226025091395635e-09 2.1027523700954604e-09 0.0000000000000000e+00  -2.6371808142518038e-09 1.5956361082649536e-09 0.0000000000000000e+00  -2.7869901179163972e-09 1.0520652172476883e-09 0.0000000000000000e+00  -2.8703501849720810e-09 4.8594895845402258e-10 0.0000000000000000e+00  -2.8866626427434506e-09 -8.8785824304283123e-11 0.0000000000000000e+00  -2.8363420599594200e-09 -6.5826885966615283e-10 0.0000000000000000e+00  -2.7207889330509474e-09 -1.2087341317913293e-09 0.0000000000000000e+00  -2.5424013255950698e-09 -1.7265709441301602e-09 0.0000000000000000e+00  -2.3046271404213697e-09 -2.1984061287497856e-09 0.0000000000000000e+00  -2.0120884890123529e-09 -2.6112410787970693e-09 0.0000000000000000e+00  -1.6709619482949764e-09 -2.9526604604231083e-09 0.0000000000000000e+00  -1.2904893284039160e-09 -3.2111162295435178e-09 0.0000000000000000e+00  -8.8942728016139119e-10 -3.3760133328789785e-09 0.0000000000000000e+00  -5.2835371573813839e-10 -3.4376111137348274e-09 0.0000000000000000e+00  -3.7605519994446104e-10 -3.2090506091907140e-09 0.0000000000000000e+00  -4.6962229536025935e-10 4.3887258933801653e-09 0.0000000000000000e+00  -6.3807350921810636e-10 4.1264493298713003e-09 0.0000000000000000e+00  -1.0360064753568531e-09 3.9551247327169104e-09 0.0000000000000000e+00  -1.4575923677854420e-09 3.6834638267253329e-09 0.0000000000000000e+00  -1.8431579768518345e-09 3.3170069561758336e-09 0.0000000000000000e+00  -2.1764669502630644e-09 2.8682415709642330e-09 0.0000000000000000e+00  -2.4507435559881230e-09 2.3513401415042148e-09 0.0000000000000000e+00  -2.6622438154745761e-09 1.7810320377713705e-09 0.0000000000000000e+00  -2.8087782734475170e-09 1.1722471236938680e-09 0.0000000000000000e+00  -2.8892621581742012e-09 5.3992588573955343e-10 0.0000000000000000e+00  -2.9035059534045629e-09 -1.0107407178454436e-10 0.0000000000000000e+00  -2.8521021631803413e-09 -7.3600693423621257e-10 0.0000000000000000e+00  -2.7363864612051933e-09 -1.3502370973540744e-09 0.0000000000000000e+00  -2.5584695578128760e-09 -1.9292440518911329e-09 0.0000000000000000e+00  -2.3213394420516045e-09 -2.4586684423844563e-09 0.0000000000000000e+00  -2.0290642056010328e-09 -2.9244266522641006e-09 0.0000000000000000e+00  -1.6872921022914292e-09 -3.3129102413525169e-09 0.0000000000000000e+00  -1.3050100347849720e-09 -3.6112750899184936e-09 0.0000000000000000e+00  -9.0178282349336220e-10 -3.8075703137815127e-09 0.0000000000000000e+00  -5.4343831474793747e-10 -3.8910805169812743e-09 0.0000000000000000e+00  -4.1726194975343645e-10 -3.6676789500845709e-09 0.0000000000000000e+00  -5.2232696061826477e-10 4.9139280673067554e-09 0.0000000000000000e+00  -6.6197774321681388e-10 4.6227701259212031e-09 0.0000000000000000e+00  -1.0564517268500545e-09 4.4153472392161299e-09 0.0000000000000000e+00  -1.4771634487725040e-09 4.0987385659962993e-09 0.0000000000000000e+00  -1.8599393454467064e-09 3.6802348226166831e-09 0.0000000000000000e+00  -2.1883719604353865e-09 3.1741349022758878e-09 0.0000000000000000e+00  -2.4564651065719702e-09 2.5962101422012354e-09 0.0000000000000000e+00  -2.6614457952738346e-09 1.9625219773313434e-09 0.0000000000000000e+00  -2.8020541689440287e-09 1.2890723880126428e-09 0.0000000000000000e+00  -2.8779686918987322e-09 5.9165156883927709e-10 0.0000000000000000e+00  -2.8895101483145967e-09 -1.1419488812487111e-10 0.0000000000000000e+00  -2.8374770388442741e-09 -8.1311765388020526e-10 0.0000000000000000e+00  -2.7230946977043908e-09 -1.4898779363901511e-09 0.0000000000000000e+00  -2.5480749725233586e-09 -2.1292730807318457e-09 0.0000000000000000e+00  -2.3147822429348891e-09 -2.7161193466401716e-09 0.0000000000000000e+00  -2.0265313576618845e-09 -3.2353270189333595e-09 0.0000000000000000e+00  -1.6882249304529952e-09 -3.6720877534183917e-09 0.0000000000000000e+00  -1.3083872891118179e-09 -4.0121836079643592e-09 0.0000000000000000e+00  -9.0728877231737531e-10 -4.2421946981141110e-09 0.0000000000000000e+00  -5.5639391374804492e-10 -4.3503540684737940e-09 0.0000000000000000e+00  -4.6397394074030610e-10 -4.1355864455976979e-09 0.0000000000000000e+00  -5.8114776590829774e-10 5.4462320211493820e-09 0.0000000000000000e+00  -6.8218912833250640e-10 5.1237142998936709e-09 0.0000000000000000e+00  -1.0662199645030136e-09 4.8756953154437042e-09 0.0000000000000000e+00  -1.4792134095376149e-09 4.5104461021410117e-09 0.0000000000000000e+00  -1.8522856508682810e-09 4.0371837734990637e-09 0.0000000000000000e+00  -2.1691076343294519e-09 3.4721507053309525e-09 0.0000000000000000e+00  -2.4248311276380640e-09 2.8327726835036785e-09 0.0000000000000000e+00  -2.6180241906018089e-09 2.1364000436017644e-09 0.0000000000000000e+00  -2.7486800855716806e-09 1.3999538993528773e-09 0.0000000000000000e+00  -2.8174873453365124e-09 6.3982039549870571e-10 0.0000000000000000e+00  -2.8254260715744654e-09 -1.2809432104651539e-10 0.0000000000000000e+00  -2.7735404020096056e-09 -8.8819943865057599e-10 0.0000000000000000e+00  -2.6628752551791519e-09 -1.6250056750212861e-09 0.0000000000000000e+00  -2.4945749345022012e-09 -2.3229298463501428e-09 0.0000000000000000e+00  -2.2701336202729629e-09 -2.9661813787926204e-09 0.0000000000000000e+00  -1.9918152513294124e-09 -3.5387794160846075e-09 0.0000000000000000e+00  -1.6634586329873035e-09 -4.0247279754187951e-09 0.0000000000000000e+00  -1.2928292071742635e-09 -4.4083644016966136e-09 0.0000000000000000e+00  -9.0073629580994204e-10 -4.6746875234849936e-09 0.0000000000000000e+00  -5.6461068965754873e-10 -4.8108133038564369e-09 0.0000000000000000e+00  -5.1629637961601787e-10 -4.6098622728070639e-09 0.0000000000000000e+00  -6.4623888808381755e-10 5.9782113622461709e-09 0.0000000000000000e+00  -6.9564657956136922e-10 5.6222000272759621e-09 0.0000000000000000e+00  -1.0591119503786817e-09 5.3283532664860702e-09 0.0000000000000000e+00  -1.4543775437453467e-09 4.9103935076890908e-09 0.0000000000000000e+00  -1.8077501139517406e-09 4.3796973788038091e-09 0.0000000000000000e+00  -2.1033275415700254e-09 3.7546124128100731e-09 0.0000000000000000e+00  -2.3378971771785326e-09 3.0542716739809554e-09 0.0000000000000000e+00  -2.5118648400256166e-09 2.2972337770560785e-09 0.0000000000000000e+00  -2.6269175512094074e-09 1.5011145529593687e-09 0.0000000000000000e+00  -2.6850922797704711e-09 6.8254170317177104e-10 0.0000000000000000e+00  -2.6882318151677029e-09 -1.4266651010831069e-10 0.0000000000000000e+00  -2.6376767969271483e-09 -9.5916912602628882e-10 0.0000000000000000e+00  -2.5341893429165688e-09 -1.7517030741205873e-09 0.0000000000000000e+00  -2.3781064053999970e-09 -2.5047120796614444e-09 0.0000000000000000e+00  -2.1697048960945077e-09 -3.2020940769401266e-09 0.0000000000000000e+00  -1.9097839224364573e-09 -3.8271370101254947e-09 0.0000000000000000e+00  -1.6006844066027968e-09 -4.3626831652463373e-09 0.0000000000000000e+00  -1.2490166174457605e-09 -4.7915442648396867e-09 0.0000000000000000e+00  -8.7588943561531363e-10 -5.0970073242711062e-09 0.0000000000000000e+00  -5.6495756581917112e-10 -5.2650088542351050e-09 0.0000000000000000e+00  -5.7435062855034106e-10 -5.0850273934398392e-09 0.0000000000000000e+00  -7.1775654798906287e-10 6.4988010274001794e-09 0.0000000000000000e+00  -6.9864418703065728e-10 6.1077183193183486e-09 0.0000000000000000e+00  -1.0276481832061473e-09 5.7620449859318929e-09 0.0000000000000000e+00  -1.3913577222997288e-09 5.2869750855225393e-09 0.0000000000000000e+00  -1.7113065828463082e-09 4.6963524299819167e-09 0.0000000000000000e+00  -1.972493113