<?xml version="1.0"?>
<VTKFile type="UnstructuredGrid"  version="0.1"  >
<UnstructuredGrid>
<Piece  NumberOfPoints="651" NumberOfCells="1200">
<Points>
<DataArray  type="Float64"  NumberOfComponents="3"  format="ascii">0 0 0  50000 0 0  100000 0 0  150000 0 0  200000 0 0  250000 0 0  300000 0 0  350000 0 0  400000 0 0  450000 0 0  500000 0 0  550000 0 0  600000 0 0  650000 0 0  700000 0 0  750000 0 0  800000 0 0  850000 0 0  900000 0 0  950000 0 0  1000000 0 0  0 50000 0  50000 50000 0  100000 50000 0  150000 50000 0  200000 50000 0  250000 50000 0  300000 50000 0  350000 50000 0  400000 50000 0  450000 50000 0  500000 50000 0  550000 50000 0  600000 50000 0  650000 50000 0  700000 50000 0  750000 50000 0  800000 50000 0  850000 50000 0  900000 50000 0  950000 50000 0  1000000 50000 0  0 100000 0  50000 100000 0  100000 100000 0  150000 100000 0  200000 100000 0  250000 100000 0  300000 100000 0  350000 100000 0  400000 100000 0  450000 100000 0  500000 100000 0  550000 100000 0  600000 100000 0  650000 100000 0  700000 100000 0  750000 100000 0  800000 100000 0  850000 100000 0  900000 100000 0  950000 100000 0  1000000 100000 0  0 150000 0  50000 150000 0  100000 150000 0  150000 150000 0  200000 150000 0  250000 150000 0  300000 150000 0  350000 150000 0  400000 150000 0  450000 150000 0  500000 150000 0  550000 150000 0  600000 150000 0  650000 150000 0  700000 150000 0  750000 150000 0  800000 150000 0  850000 150000 0  900000 150000 0  950000 150000 0  1000000 150000 0  0 200000 0  50000 200000 0  100000 200000 0  150000 200000 0  200000 200000 0  250000 200000 0  300000 200000 0  350000 200000 0  400000 200000 0  450000 200000 0  500000 200000 0  550000 200000 0  600000 200000 0  650000 200000 0  700000 200000 0  750000 200000 0  800000 200000 0  850000 200000 0  900000 200000 0  950000 200000 0  1000000 200000 0  0 250000 0  50000 250000 0  100000 250000 0  150000 250000 0  200000 250000 0  250000 250000 0  300000 250000 0  350000 250000 0  400000 250000 0  450000 250000 0  500000 250000 0  550000 250000 0  600000 250000 0  650000 250000 0  700000 250000 0  750000 250000 0  800000 250000 0  850000 250000 0  900000 250000 0  950000 250000 0  1000000 250000 0  0 300000 0  50000 300000 0  100000 300000 0  150000 300000 0  200000 300000 0  250000 300000 0  300000 300000 0  350000 300000 0  400000 300000 0  450000 300000 0  500000 300000 0  550000 300000 0  600000 300000 0  650000 300000 0  700000 300000 0  750000 300000 0  800000 300000 0  850000 300000 0  900000 300000 0  950000 300000 0  1000000 300000 0  0 350000 0  50000 350000 0  100000 350000 0  150000 350000 0  200000 350000 0  250000 350000 0  300000 350000 0  350000 350000 0  400000 350000 0  450000 350000 0  500000 350000 0  550000 350000 0  600000 350000 0  650000 350000 0  700000 350000 0  750000 350000 0  800000 350000 0  850000 350000 0  900000 350000 0  950000 350000 0  1000000 350000 0  0 400000 0  50000 400000 0  100000 400000 0  150000 400000 0  200000 400000 0  250000 400000 0  300000 400000 0  350000 400000 0  400000 400000 0  450000 400000 0  500000 400000 0  550000 400000 0  600000 400000 0  650000 400000 0  700000 400000 0  750000 400000 0  800000 400000 0  850000 400000 0  900000 400000 0  950000 400000 0  1000000 400000 0  0 450000 0  50000 450000 0  100000 450000 0  150000 450000 0  200000 450000 0  250000 450000 0  300000 450000 0  350000 450000 0  400000 450000 0  450000 450000 0  500000 450000 0  550000 450000 0  600000 450000 0  650000 450000 0  700000 450000 0  750000 450000 0  800000 450000 0  850000 450000 0  900000 450000 0  950000 450000 0  1000000 450000 0  0 500000 0  50000 500000 0  100000 500000 0  150000 500000 0  200000 500000 0  250000 500000 0  300000 500000 0  350000 500000 0  400000 500000 0  450000 500000 0  500000 500000 0  550000 500000 0  600000 500000 0  650000 500000 0  700000 500000 0  750000 500000 0  800000 500000 0  850000 500000 0  900000 500000 0  950000 500000 0  1000000 500000 0  0 550000 0  50000 550000 0  100000 550000 0  150000 550000 0  200000 550000 0  250000 550000 0  300000 550000 0  350000 550000 0  400000 550000 0  450000 550000 0  500000 550000 0  550000 550000 0  600000 550000 0  650000 550000 0  700000 550000 0  750000 550000 0  800000 550000 0  850000 550000 0  900000 550000 0  950000 550000 0  1000000 550000 0  0 600000 0  50000 600000 0  100000 600000 0  150000 600000 0  200000 600000 0  250000 600000 0  300000 600000 0  350000 600000 0  400000 600000 0  450000 600000 0  500000 600000 0  550000 600000 0  600000 600000 0  650000 600000 0  700000 600000 0  750000 600000 0  800000 600000 0  850000 600000 0  900000 600000 0  950000 600000 0  1000000 600000 0  0 650000 0  50000 650000 0  100000 650000 0  150000 650000 0  200000 650000 0  250000 650000 0  300000 650000 0  350000 650000 0  400000 650000 0  450000 650000 0  500000 650000 0  550000 650000 0  600000 650000 0  650000 650000 0  700000 650000 0  750000 650000 0  800000 650000 0  850000 650000 0  900000 650000 0  950000 650000 0  1000000 650000 0  0 700000 0  50000 700000 0  100000 700000 0  150000 700000 0  200000 700000 0  250000 700000 0  300000 700000 0  350000 700000 0  400000 700000 0  450000 700000 0  500000 700000 0  550000 700000 0  600000 700000 0  650000 700000 0  700000 700000 0  750000 700000 0  800000 700000 0  850000 700000 0  900000 700000 0  950000 700000 0  1000000 700000 0  0 750000 0  50000 750000 0  100000 750000 0  150000 750000 0  200000 750000 0  250000 750000 0  300000 750000 0  350000 750000 0  400000 750000 0  450000 750000 0  500000 750000 0  550000 750000 0  600000 750000 0  650000 750000 0  700000 750000 0  750000 750000 0  800000 750000 0  850000 750000 0  900000 750000 0  950000 750000 0  1000000 750000 0  0 800000 0  50000 800000 0  100000 800000 0  150000 800000 0  200000 800000 0  250000 800000 0  300000 800000 0  350000 800000 0  400000 800000 0  450000 800000 0  500000 800000 0  550000 800000 0  600000 800000 0  650000 800000 0  700000 800000 0  750000 800000 0  800000 800000 0  850000 800000 0  900000 800000 0  950000 800000 0  1000000 800000 0  0 850000 0  50000 850000 0  100000 850000 0  150000 850000 0  200000 850000 0  250000 850000 0  300000 850000 0  350000 850000 0  400000 850000 0  450000 850000 0  500000 850000 0  550000 850000 0  600000 850000 0  650000 850000 0  700000 850000 0  750000 850000 0  800000 850000 0  850000 850000 0  900000 850000 0  950000 850000 0  1000000 850000 0  0 900000 0  50000 900000 0  100000 900000 0  150000 900000 0  200000 900000 0  250000 900000 0  300000 900000 0  350000 900000 0  400000 900000 0  450000 900000 0  500000 900000 0  550000 900000 0  600000 900000 0  650000 900000 0  700000 900000 0  750000 900000 0  800000 900000 0  850000 900000 0  900000 900000 0  950000 900000 0  1000000 900000 0  0 950000 0  50000 950000 0  100000 950000 0  150000 950000 0  200000 950000 0  250000 950000 0  300000 950000 0  350000 950000 0  400000 950000 0  450000 950000 0  500000 950000 0  550000 950000 0  600000 950000 0  650000 950000 0  700000 950000 0  750000 950000 0  800000 950000 0  850000 950000 0  900000 950000 0  950000 950000 0  1000000 950000 0  0 1000000 0  50000 1000000 0  100000 1000000 0  150000 1000000 0  200000 1000000 0  250000 1000000 0  300000 1000000 0  350000 1000000 0  400000 1000000 0  450000 1000000 0  500000 1000000 0  550000 1000000 0  600000 1000000 0  650000 1000000 0  700000 1000000 0  750000 1000000 0  800000 1000000 0  850000 1000000 0  900000 1000000 0  950000 1000000 0  1000000 1000000 0  0 1050000 0  50000 1050000 0  100000 1050000 0  150000 1050000 0  200000 1050000 0  250000 1050000 0  300000 1050000 0  350000 1050000 0  400000 1050000 0  450000 1050000 0  500000 1050000 0  550000 1050000 0  600000 1050000 0  650000 1050000 0  700000 1050000 0  750000 1050000 0  800000 1050000 0  850000 1050000 0  900000 1050000 0  950000 1050000 0  1000000 1050000 0  0 1100000 0  50000 1100000 0  100000 1100000 0  150000 1100000 0  200000 1100000 0  250000 1100000 0  300000 1100000 0  350000 1100000 0  400000 1100000 0  450000 1100000 0  500000 1100000 0  550000 1100000 0  600000 1100000 0  650000 1100000 0  700000 1100000 0  750000 1100000 0  800000 1100000 0  850000 1100000 0  900000 1100000 0  950000 1100000 0  1000000 1100000 0  0 1150000 0  50000 1150000 0  100000 1150000 0  150000 1150000 0  200000 1150000 0  250000 1150000 0  300000 1150000 0  350000 1150000 0  400000 1150000 0  450000 1150000 0  500000 1150000 0  550000 1150000 0  600000 1150000 0  650000 1150000 0  700000 1150000 0  750000 1150000 0  800000 1150000 0  850000 1150000 0  900000 1150000 0  950000 1150000 0  1000000 1150000 0  0 1200000 0  50000 1200000 0  100000 1200000 0  150000 1200000 0  200000 1200000 0  250000 1200000 0  300000 1200000 0  350000 1200000 0  400000 1200000 0  450000 1200000 0  500000 1200000 0  550000 1200000 0  600000 1200000 0  650000 1200000 0  700000 1200000 0  750000 1200000 0  800000 1200000 0  850000 1200000 0  900000 1200000 0  950000 1200000 0  1000000 1200000 0  0 1250000 0  50000 1250000 0  100000 1250000 0  150000 1250000 0  200000 1250000 0  250000 1250000 0  300000 1250000 0  350000 1250000 0  400000 1250000 0  450000 1250000 0  500000 1250000 0  550000 1250000 0  600000 1250000 0  650000 1250000 0  700000 1250000 0  750000 1250000 0  800000 1250000 0  850000 1250000 0  900000 1250000 0  950000 1250000 0  1000000 1250000 0  0 1300000 0  50000 1300000 0  100000 1300000 0  150000 1300000 0  200000 1300000 0  250000 1300000 0  300000 1300000 0  350000 1300000 0  400000 1300000 0  450000 1300000 0  500000 1300000 0  550000 1300000 0  600000 1300000 0  650000 1300000 0  700000 1300000 0  750000 1300000 0  800000 1300000 0  850000 1300000 0  900000 1300000 0  950000 1300000 0  1000000 1300000 0  0 1350000 0  50000 1350000 0  100000 1350000 0  150000 1350000 0  200000 1350000 0  250000 1350000 0  300000 1350000 0  350000 1350000 0  400000 1350000 0  450000 1350000 0  500000 1350000 0  550000 1350000 0  600000 1350000 0  650000 1350000 0  700000 135
[...]
<PointData  Vectors="f_15"> 
<DataArray  type="Float64"  Name="f_15"  NumberOfComponents="3" format="ascii">-3.1217943126938723e-10 3.3850350266616901e-10 0.0000000000000000e+00  -5.8549983265677546e-10 2.8618758510014724e-10 0.0000000000000000e+00  -1.0707181018443224e-09 2.6456214515445003e-10 0.0000000000000000e+00  -1.5393303695012853e-09 2.4511675299715285e-10 0.0000000000000000e+00  -1.9683010802061079e-09 2.2207858933269427e-10 0.0000000000000000e+00  -2.3451072869727093e-09 1.9497658121625346e-10 0.0000000000000000e+00  -2.6595763785128939e-09 1.6415510872730941e-10 0.0000000000000000e+00  -2.9034798367698875e-09 1.3023387925857593e-10 0.0000000000000000e+00  -3.0705244675500719e-09 9.3988377182564102e-11 0.0000000000000000e+00  -3.1564649662578772e-09 5.6284858206227686e-11 0.0000000000000000e+00  -3.1591959740818799e-09 1.8037735928218745e-11 0.0000000000000000e+00  -3.0787966280165543e-09 -1.9823172551770600e-11 0.0000000000000000e+00  -2.9175227065864936e-09 -5.6381415641324444e-11 0.0000000000000000e+00  -2.6797462399101076e-09 -9.0761618084509795e-11 0.0000000000000000e+00  -2.3718528979505479e-09 -1.2216005782857291e-10 0.0000000000000000e+00  -2.0021624403724118e-09 -1.4989189569321641e-10 0.0000000000000000e+00  -1.5812177477728114e-09 -1.7350674329810596e-10 0.0000000000000000e+00  -1.1240318656193889e-09 -1.9311655847647280e-10 0.0000000000000000e+00  -6.6076399983912302e-10 -2.0906224407806285e-10 0.0000000000000000e+00  -2.8218527444913651e-10 -2.0329005929765701e-10 0.0000000000000000e+00  -1.2290121979160347e-10 -1.2025613034554944e-10 0.0000000000000000e+00  -2.6348467853858048e-10 5.9022882968419950e-10 0.0000000000000000e+00  -4.9882810419033955e-10 5.0419964163149157e-10 0.0000000000000000e+00  -8.9201906698486347e-10 5.0699889979884350e-10 0.0000000000000000e+00  -1.3136388228882756e-09 4.8310330082525363e-10 0.0000000000000000e+00  -1.7144506169929593e-09 4.4064011833320435e-10 0.0000000000000000e+00  -2.0757583837228567e-09 3.8450005976521070e-10 0.0000000000000000e+00  -2.3853739665988907e-09 3.1751710098120564e-10 0.0000000000000000e+00  -2.6340492687015343e-09 2.4200929652032275e-10 0.0000000000000000e+00  -2.8147740239449053e-09 1.6021966083238443e-10 0.0000000000000000e+00  -2.9226195865383451e-09 7.4427114935823209e-11 0.0000000000000000e+00  -2.9547362286447730e-09 -1.3043710925224630e-11 0.0000000000000000e+00  -2.9103704121091411e-09 -9.9848832732946964e-11 0.0000000000000000e+00  -2.7908645594840230e-09 -1.8366314785876098e-10 0.0000000000000000e+00  -2.5996320506466682e-09 -2.6221828095490644e-10 0.0000000000000000e+00  -2.3421184740241119e-09 -3.3332833887572271e-10 0.0000000000000000e+00  -2.0257993156981666e-09 -3.9488129948447414e-10 0.0000000000000000e+00  -1.6603965235555990e-09 -4.4472816623520639e-10 0.0000000000000000e+00  -1.2590110777181090e-09 -4.8015994169796653e-10 0.0000000000000000e+00  -8.4309874412106167e-10 -4.9504622276129554e-10 0.0000000000000000e+00  -4.6476613579699135e-10 -4.6554218150255877e-10 0.0000000000000000e+00  -2.1389955011125413e-10 -2.6795498727317609e-10 0.0000000000000000e+00  -2.5751515840468526e-10 1.0374859945186857e-09 0.0000000000000000e+00  -5.1068844751771261e-10 8.7991764934433185e-10 0.0000000000000000e+00  -8.8994107288799393e-10 8.6958699012768404e-10 0.0000000000000000e+00  -1.2828772420591443e-09 8.3014585146154893e-10 0.0000000000000000e+00  -1.6545830027861151e-09 7.5990613221884317e-10 0.0000000000000000e+00  -1.9897154458613757e-09 6.6469649466791324e-10 0.0000000000000000e+00  -2.2771965317734322e-09 5.4951899204816974e-10 0.0000000000000000e+00  -2.5082767635439412e-09 4.1869003353103076e-10 0.0000000000000000e+00  -2.6762257365953345e-09 2.7634050633064045e-10 0.0000000000000000e+00  -2.7763048321717571e-09 1.2660759593278645e-10 0.0000000000000000e+00  -2.8057761296074198e-09 -2.6324806697445752e-11 0.0000000000000000e+00  -2.7639138027823760e-09 -1.7825085913817154e-10 0.0000000000000000e+00  -2.6520028681352910e-09 -3.2499192265027035e-10 0.0000000000000000e+00  -2.4733210564350191e-09 -4.6244443024182764e-10 0.0000000000000000e+00  -2.2331133460541129e-09 -5.8659961156438521e-10 0.0000000000000000e+00  -1.9385968354764659e-09 -6.9348771589015595e-10 0.0000000000000000e+00  -1.5991235521148521e-09 -7.7893703965318638e-10 0.0000000000000000e+00  -1.2269788648619506e-09 -8.3786650337958127e-10 0.0000000000000000e+00  -8.4061586194688176e-10 -8.6232859203150914e-10 0.0000000000000000e+00  -4.8073456089037959e-10 -8.3920716614446892e-10 0.0000000000000000e+00  -2.3011070494859712e-10 -6.1384071388615871e-10 0.0000000000000000e+00  -2.6653189587625788e-10 1.4782098070201383e-09 0.0000000000000000e+00  -5.0649846297629275e-10 1.3047763942862752e-09 0.0000000000000000e+00  -8.7902825180840818e-10 1.2661179577840135e-09 0.0000000000000000e+00  -1.2622972229138305e-09 1.2008190661284516e-09 0.0000000000000000e+00  -1.6207374277353272e-09 1.0982092946639256e-09 0.0000000000000000e+00  -1.9413984705619542e-09 9.6158625175477333e-10 0.0000000000000000e+00  -2.2152834435601149e-09 7.9643585671865201e-10 0.0000000000000000e+00  -2.4348074281334811e-09 6.0852189204397500e-10 0.0000000000000000e+00  -2.5938888733127423e-09 4.0370973125690594e-10 0.0000000000000000e+00  -2.6881611793519795e-09 1.8798200362177970e-10 0.0000000000000000e+00  -2.7150957735609536e-09 -3.2579225141674627e-11 0.0000000000000000e+00  -2.6740593654453414e-09 -2.5184895699320807e-10 0.0000000000000000e+00  -2.5663280775292164e-09 -4.6373386763164654e-10 0.0000000000000000e+00  -2.3950686960191516e-09 -6.6224372964047572e-10 0.0000000000000000e+00  -2.1652924294574621e-09 -8.4153578607730184e-10 0.0000000000000000e+00  -1.8837937334488659e-09 -9.9590072374645004e-10 0.0000000000000000e+00  -1.5591384045403964e-09 -1.1196547298667399e-09 0.0000000000000000e+00  -1.2020456634961425e-09 -1.2069532737206219e-09 0.0000000000000000e+00  -8.2790057646338909e-10 -1.2516670829447106e-09 0.0000000000000000e+00  -4.7439141933115465e-10 -1.2481204147062230e-09 0.0000000000000000e+00  -2.3477974529320543e-10 -1.0348581214036440e-09 0.0000000000000000e+00  -2.8375811647757266e-10 1.9098655248531055e-09 0.0000000000000000e+00  -5.0601828976370160e-10 1.7298525810022905e-09 0.0000000000000000e+00  -8.7287537776703533e-10 1.6672923631089806e-09 0.0000000000000000e+00  -1.2524563202105321e-09 1.5726684760848437e-09 0.0000000000000000e+00  -1.6063197334186098e-09 1.4347638712214298e-09 0.0000000000000000e+00  -1.9211251522454257e-09 1.2555329150135887e-09 0.0000000000000000e+00  -2.1886610026208470e-09 1.0404059052232806e-09 0.0000000000000000e+00  -2.4022317904179675e-09 7.9607603614349822e-10 0.0000000000000000e+00  -2.5563973579307364e-09 5.2983985527424602e-10 0.0000000000000000e+00  -2.6472033554280212e-09 2.4935267299799063e-10 0.0000000000000000e+00  -2.6723652743040744e-09 -3.7514624300999026e-11 0.0000000000000000e+00  -2.6313650622158627e-09 -3.2280076805011194e-10 0.0000000000000000e+00  -2.5254817892132612e-09 -5.9857710814868641e-10 0.0000000000000000e+00  -2.3577696645885759e-09 -8.5706537247200514e-10 0.0000000000000000e+00  -2.1329860374087565e-09 -1.0907435138607119e-09 0.0000000000000000e+00  -1.8574736939044179e-09 -1.2924402324679369e-09 0.0000000000000000e+00  -1.5390655498782657e-09 -1.4554522648081857e-09 0.0000000000000000e+00  -1.1874618323284237e-09 -1.5738143593359137e-09 0.0000000000000000e+00  -8.1737173984619904e-10 -1.6427764765226959e-09 0.0000000000000000e+00  -4.6907874180785944e-10 -1.6589493178234624e-09 0.0000000000000000e+00  -2.4702012371538678e-10 -1.4600992069547970e-09 0.0000000000000000e+00  -3.0776100162780572e-10 2.3377821306247877e-09 0.0000000000000000e+00  -5.1169322224049406e-10 2.1518525515625452e-09 0.0000000000000000e+00  -8.7506757321290794e-10 2.0693654783250626e-09 0.0000000000000000e+00  -1.2546256275565180e-09 1.9453694787294638e-09 0.0000000000000000e+00  -1.6088302685533356e-09 1.7707719375056661e-09 0.0000000000000000e+00  -1.9232294780213794e-09 1.5477775649004947e-09 0.0000000000000000e+00  -2.1895312538302461e-09 1.2821679381316025e-09 0.0000000000000000e+00  -2.4013856768724242e-09 9.8148856064461718e-10 0.0000000000000000e+00  -2.5537552409030471e-09 6.5430066913386269e-10 0.0000000000000000e+00  -2.6430083912096073e-09 3.0978414686518350e-10 0.0000000000000000e+00  -2.6670756634813914e-09 -4.2521781449419401e-11 0.0000000000000000e+00  -2.6255489107450765e-09 -3.9292423503090338e-10 0.0000000000000000e+00  -2.5197161307590387e-09 -7.3176207417013364e-10 0.0000000000000000e+00  -2.3525376233018539e-09 -1.0495848833403425e-09 0.0000000000000000e+00  -2.1285655437140685e-09 -1.3373358870626921e-09 0.0000000000000000e+00  -1.8538207024322184e-09 -1.5865592680942007e-09 0.0000000000000000e+00  -1.5357388259516226e-09 -1.7896812138151822e-09 0.0000000000000000e+00  -1.1837846336357222e-09 -1.9404538090323778e-09 0.0000000000000000e+00  -8.1341388774111507e-10 -2.0343709668366288e-09 0.0000000000000000e+00  -4.6884690284280597e-10 -2.0681536758254879e-09 0.0000000000000000e+00  -2.6585015915970837e-10 -1.8790704885559384e-09 0.0000000000000000e+00  -3.3807099731479571e-10 2.7667847567936411e-09 0.0000000000000000e+00  -5.2319191580173362e-10 2.5745055786864246e-09 0.0000000000000000e+00  -8.8542553420349877e-10 2.4738235395591625e-09 0.0000000000000000e+00  -1.2677817496912719e-09 2.3212004342543399e-09 0.0000000000000000e+00  -1.6254488174322152e-09 2.1093439728172649e-09 0.0000000000000000e+00  -1.9427948537187947e-09 1.8416010282041631e-09 0.0000000000000000e+00  -2.2111207781422304e-09 1.5246286162446062e-09 0.0000000000000000e+00  -2.4240723932464841e-09 1.1669945790812439e-09 0.0000000000000000e+00  -2.5767782895881363e-09 7.7852290996936821e-10 0.0000000000000000e+00  -2.6658011317297276e-09 3.6985283267973200e-10 0.0000000000000000e+00  -2.6892261317831038e-09 -4.7891346139580464e-11 0.0000000000000000e+00  -2.6467331353833867e-09 -4.6337194485033134e-10 0.0000000000000000e+00  -2.5396232077601252e-09 -8.6528261725907358e-10 0.0000000000000000e+00  -2.3707963385391663e-09 -1.2425874707734739e-09 0.0000000000000000e+00  -2.1446828522939792e-09 -1.5847738541926494e-09 0.0000000000000000e+00  -1.8671555431799788e-09 -1.8821431245598527e-09 0.0000000000000000e+00  -1.5455747125900383e-09 -2.1261734380137780e-09 0.0000000000000000e+00  -1.1896656389860965e-09 -2.3099813244640456e-09 0.0000000000000000e+00  -8.1616624958282462e-10 -2.4285715841021173e-09 0.0000000000000000e+00  -4.7359413289081903e-10 -2.4780502888627032e-09 0.0000000000000000e+00  -2.9035556011581546e-10 -2.2941840824730537e-09 0.0000000000000000e+00  -3.7454462416808001e-10 3.2004862385821833e-09 0.0000000000000000e+00  -5.3942161476028145e-10 3.0013367639135469e-09 0.0000000000000000e+00  -9.0213281462701143e-10 2.8831602284457572e-09 0.0000000000000000e+00  -1.2892325860020858e-09 2.7023116301887651e-09 0.0000000000000000e+00  -1.6522478213815295e-09 2.4528227711131663e-09 0.0000000000000000e+00  -1.9743976549597776e-09 2.1394353673586606e-09 0.0000000000000000e+00  -2.2465197150858782e-09 1.7700335884394024e-09 0.0000000000000000e+00  -2.4621147513989954e-09 1.3544252964881834e-09 0.0000000000000000e+00  -2.6163408047274736e-09 9.0378093216797324e-10 0.0000000000000000e+00  -2.7058610189879598e-09 4.3020058135796537e-10 0.0000000000000000e+00  -2.7288625120039330e-09 -5.3647350201368815e-11 0.0000000000000000e+00  -2.6850899631575756e-09 -5.3483939222045764e-10 0.0000000000000000e+00  -2.5758580101484006e-09 -1.0004849603281477e-09 0.0000000000000000e+00  -2.4040346078476269e-09 -1.4380114336347462e-09 0.0000000000000000e+00  -2.1739982428470231e-09 -1.8354679897122288e-09 0.0000000000000000e+00  -1.8916038767880563e-09 -2.1818687102894428e-09 0.0000000000000000e+00  -1.5643332529514021e-09 -2.4675905494471455e-09 0.0000000000000000e+00  -1.2023988061390997e-09 -2.6848160966547623e-09 0.0000000000000000e+00  -8.2399936079739155e-10 -2.8276831842247199e-09 0.0000000000000000e+00  -4.8226178570908625e-10 -2.8914725870573351e-09 0.0000000000000000e+00  -3.2017751613995298e-10 -2.7094927417265974e-09 0.0000000000000000e+00  -4.1721102006343554e-10 3.6409603851679360e-09 0.0000000000000000e+00  -5.5896831999822368e-10 3.4346950663994035e-09 0.0000000000000000e+00  -9.2254741204635553e-10 3.2991688588926630e-09 0.0000000000000000e+00  -1.3151758303851550e-09 3.0900532130456126e-09 0.0000000000000000e+00  -1.6841936531747561e-09 2.8024297774608033e-09 0.0000000000000000e+00  -2.0116812933566187e-09 2.4424745101486727e-09 0.0000000000000000e+00  -2.2880608575885276e-09 2.0194936864872503e-09 0.0000000000000000e+00  -2.5066861674467468e-09 1.5447111927844869e-09 0.0000000000000000e+00  -2.6627161536888443e-09 1.0307454589621950e-09 0.0000000000000000e+00  -2.7528857168739037e-09 4.9118833642099555e-10 0.0000000000000000e+00  -2.7754634526953326e-09 -5.9765114412647192e-11 0.0000000000000000e+00  -2.7302456537850168e-09 -6.0764723914710976e-10 0.0000000000000000e+00  -2.6185540228524156e-09 -1.1380264448934046e-09 0.0000000000000000e+00  -2.4432293839532006e-09 -1.6368168211082597e-09 0.0000000000000000e+00  -2.2086236356214297e-09 -2.0906114887730545e-09 0.0000000000000000e+00  -1.9206262140830691e-09 -2.4870567597567803e-09 0.0000000000000000e+00  -1.5869128681393486e-09 -2.8152715365423757e-09 0.0000000000000000e+00  -1.2182507823847489e-09 -3.0662879529927688e-09 0.0000000000000000e+00  -8.3437223265387157e-10 -3.2331832550962784e-09 0.0000000000000000e+00  -4.9341304496481626e-10 -3.3103658000345442e-09 0.0000000000000000e+00  -3.5519321758598171e-10 -3.1281001570648429e-09 0.0000000000000000e+00  -4.6620324332435995e-10 4.0885284428101731e-09 0.0000000000000000e+00  -5.8017383932221639e-10 3.8754159498355029e-09 0.0000000000000000e+00  -9.4342586740819636e-10 3.7223363224524684e-09 0.0000000000000000e+00  -1.3408856826927728e-09 3.4845649144590180e-09 0.0000000000000000e+00  -1.7151270217734928e-09 3.1581129290072592e-09 0.0000000000000000e+00  -2.0470791924765819e-09 2.7506138104023883e-09 0.0000000000000000e+00  -2.3268447219754055e-09 2.2729160428963632e-09 0.0000000000000000e+00  -2.5477195216868735e-09 1.7377898979065145e-09 0.0000000000000000e+00  -2.7049277327716979e-09 1.1593876013647146e-09 0.0000000000000000e+00  -2.7953186210572562e-09 5.5281987632342128e-10 0.0000000000000000e+00  -2.8172647730767957e-09 -6.6212471151788064e-11 0.0000000000000000e+00  -2.7706158400525663e-09 -6.8174433684362784e-10 0.0000000000000000e+00  -2.6566829612337894e-09 -1.2778495304010553e-09 0.0000000000000000e+00  -2.4782487722069343e-09 -1.8389492757613901e-09 0.0000000000000000e+00  -2.2396032562329848e-09 -2.3501534844649377e-09 0.0000000000000000e+00  -1.9466382395985840e-09 -2.7976531588165376e-09 0.0000000000000000e+00  -1.6071954544335030e-09 -3.1691651965277293e-09 0.0000000000000000e+00  -1.2325742910671313e-09 -3.4544033638253361e-09 0.0000000000000000e+00  -8.4408554090539686e-10 -3.6452610344014989e-09 0.0000000000000000e+00  -5.0533880795289911e-10 -3.7352646868054196e-09 0.0000000000000000e+00  -3.9539813441986118e-10 -3.5515537083229885e-09 0.0000000000000000e+00  -5.2171985411396756e-10 4.5415043580758795e-09 0.0000000000000000e+00  -6.0110218581621875e-10 4.3225269097248033e-09 0.0000000000000000e+00  -9.6090676815795173e-10 4.1514730539143176e-09 0.0000000000000000e+00  -1.3606696950512877e-09 3.8844188119643136e-09 0.0000000000000000e+00  -1.7376138779641624e-09 3.5183101579872499e-09 0.0000000000000000e+00  -2.0715082445424371e-09 3.0623046030389518e-09 0.0000000000000000e+00  -2.3522756977289110e-09 2.5289022871768159e-09 0.0000000000000000e+00  -2.5733196284820787e-09 1.9325249701326722e-09 0.0000000000000000e+00  -2.7300792448974201e-09 1.2889183341828292e-09 0.0000000000000000e+00  -2.8196338957595803e-09 6.1471095985654783e-10 0.0000000000000000e+00  -2.8405301754030421e-09 -7.2943795054837547e-11 0.0000000000000000e+00  -2.7926889844783879e-09 -7.5666461418544313e-10 0.0000000000000000e+00  -2.6773771109686995e-09 -1.4191086529582967e-09 0.0000000000000000e+00  -2.4972417360256869e-09 -2.0432479417412204e-09 0.0000000000000000e+00  -2.2564044521476019e-09 -2.6126949486529425e-09 0.0000000000000000e+00  -1.9606403124599598e-09 -3.1121037445153359e-09 0.0000000000000000e+00  -1.6178413920406275e-09 -3.5276513784614526e-09 0.0000000000000000e+00  -1.2397522378970526e-09 -3.8475752974745574e-09 0.0000000000000000e+00  -8.4929260148461174e-10 -4.0624668793317205e-09 0.0000000000000000e+00  -5.1604073312079813e-10 -4.1649534168145946e-09 0.0000000000000000e+00  -4.4086015478985583e-10 -3.9795872037018217e-09 0.0000000000000000e+00  -5.8399999191906203e-10 4.9958580266739782e-09 0.0000000000000000e+00  -6.1946521645022806e-10 4.7729148377040877e-09 0.0000000000000000e+00  -9.7038978234560365e-10 4.5833426867273929e-09 0.0000000000000000e+00  -1.3676907868024834e-09 4.2862399081004208e-09 0.0000000000000000e+00  -1.7426763688112076e-09 3.8796138163800298e-09 0.0000000000000000e+00  -2.0739767010248851e-09 3.3742821081459563e-09 0.0000000000000000e+00  -2.3515367915995335e-09 2.7845341078721031e-09 0.0000000000000000e+00  -2.5691190554022637e-09 2.1265437166581982e-09 0.0000000000000000e+00  -2.7226208685762805e-09 1.4176808211071268e-09 0.0000000000000000e+00  -2.8095481344278956e-09 6.7604221489505892e-10 0.0000000000000000e+00  -2.8287444025294452e-09 -7.9882418801945025e-11 0.0000000000000000e+00  -2.7802360212471749e-09 -8.3144623880121063e-10 0.0000000000000000e+00  -2.6651889638338786e-09 -1.5600335734476057e-09 0.0000000000000000e+00  -2.4859794850559114e-09 -2.2472636249169604e-09 0.0000000000000000e+00  -2.2463694303411588e-09 -2.8752700897012517e-09 0.0000000000000000e+00  -1.9518004047983427e-09 -3.4270997205857811e-09 0.0000000000000000e+00  -1.6100075956066098e-09 -3.8872437104549122e-09 0.0000000000000000e+00  -1.2330283730756347e-09 -4.2422810582826483e-09 0.0000000000000000e+00  -8.4539900673855550e-10 -4.4813465126958172e-09 0.0000000000000000e+00  -5.2316652526806172e-10 -4.5961220783991936e-09 0.0000000000000000e+00  -4.9169558885626219e-10 -4.4098577690591161e-09 0.0000000000000000e+00  -6.5330633392829622e-10 5.4447791091152227e-09 0.0000000000000000e+00  -6.3252798355033889e-10 5.2209173941982058e-09 0.0000000000000000e+00  -9.6635947213952900e-10 5.0122277085496919e-09 0.0000000000000000e+00  -1.3537023742687357e-09 4.6842555947345673e-09 0.0000000000000000e+00  -1.7194219349118772e-09 4.2363326661094574e-09 0.0000000000000000e+00  -2.0410887523365251e-09 3.6811682533626657e-09 0.0000000000000000e+00  -2.3089630174679771e-09 3.0350353620814626e-09 0.0000000000000000e+00  -2.5175309630503694e-09 2.3159726494713173e-09 0.0000000000000000e+00  -2.6635073066911934e-09 1.5429721015453861e-09 0.0000000000000000e+00  -2.7451190222798395e-09 7.3547756877735205e-10 0.0000000000000000e+00  -2.7616924231320158e-09 -8.6900305856370776e-11 0.0000000000000000e+00  -2.7134107196378648e-09 -9.0451173909358552e-10 0.0000000000000000e+00  -2.6012513488390569e-09 -1.6977198722431706e-09 0.0000000000000000e+00  -2.4271092206902356e-09 -2.4469749591389187e-09 0.0000000000000000e+00  -2.1940884379298348e-09 -3.1330050492163070e-09 0.0000000000000000e+00  -1.9069603416624122e-09 -3.7371937040473190e-09 0.0000000000000000e+00  -1.5729843351400223e-09 -4.2421751436128004e-09 0.0000000000000000e+00  -1.2042563085602682e-09 -4.6326305519480688e-09 0.0000000000000000e+00  -8.2689904024836178e-10 -4.8960106581975225e-09 0.0000000000000000e+00  -5.2391891483081428e-10 -5.0229587798630869e-09 0.0000000000000000e+00  -5.4805408408143577e-10 -4.8376031744754770e-09 0.0000000000000000e+00  -7.2991547466886285e-10 5.8781266765552137e-09 0.0000000000000000e+00  -6.3700014220193522e-10 5.6578147899299469e-09 0.0000000000000000e+00  -9.4216997900516268e-10 5.4293982703757578e-09 0.0000000000000000e+00  -1.3087146519279365e-09 5.0697404320171614e-09 0.0000000000000000e+00  -1.6545766583478588e-09 4.5799328713147152e-09 0.0000000000000000e+00  -1.956432899