<?xml version="1.0"?>
<VTKFile type="UnstructuredGrid"  version="0.1"  >
<UnstructuredGrid>
<Piece  NumberOfPoints="651" NumberOfCells="1200">
<Points>
<DataArray  type="Float64"  NumberOfComponents="3"  format="ascii">0 0 0  50000 0 0  100000 0 0  150000 0 0  200000 0 0  250000 0 0  300000 0 0  350000 0 0  400000 0 0  450000 0 0  500000 0 0  550000 0 0  600000 0 0  650000 0 0  700000 0 0  750000 0 0  800000 0 0  850000 0 0  900000 0 0  950000 0 0  1000000 0 0  0 50000 0  50000 50000 0  100000 50000 0  150000 50000 0  200000 50000 0  250000 50000 0  300000 50000 0  350000 50000 0  400000 50000 0  450000 50000 0  500000 50000 0  550000 50000 0  600000 50000 0  650000 50000 0  700000 50000 0  750000 50000 0  800000 50000 0  850000 50000 0  900000 50000 0  950000 50000 0  1000000 50000 0  0 100000 0  50000 100000 0  100000 100000 0  150000 100000 0  200000 100000 0  250000 100000 0  300000 100000 0  350000 100000 0  400000 100000 0  450000 100000 0  500000 100000 0  550000 100000 0  600000 100000 0  650000 100000 0  700000 100000 0  750000 100000 0  800000 100000 0  850000 100000 0  900000 100000 0  950000 100000 0  1000000 100000 0  0 150000 0  50000 150000 0  100000 150000 0  150000 150000 0  200000 150000 0  250000 150000 0  300000 150000 0  350000 150000 0  400000 150000 0  450000 150000 0  500000 150000 0  550000 150000 0  600000 150000 0  650000 150000 0  700000 150000 0  750000 150000 0  800000 150000 0  850000 150000 0  900000 150000 0  950000 150000 0  1000000 150000 0  0 200000 0  50000 200000 0  100000 200000 0  150000 200000 0  200000 200000 0  250000 200000 0  300000 200000 0  350000 200000 0  400000 200000 0  450000 200000 0  500000 200000 0  550000 200000 0  600000 200000 0  650000 200000 0  700000 200000 0  750000 200000 0  800000 200000 0  850000 200000 0  900000 200000 0  950000 200000 0  1000000 200000 0  0 250000 0  50000 250000 0  100000 250000 0  150000 250000 0  200000 250000 0  250000 250000 0  300000 250000 0  350000 250000 0  400000 250000 0  450000 250000 0  500000 250000 0  550000 250000 0  600000 250000 0  650000 250000 0  700000 250000 0  750000 250000 0  800000 250000 0  850000 250000 0  900000 250000 0  950000 250000 0  1000000 250000 0  0 300000 0  50000 300000 0  100000 300000 0  150000 300000 0  200000 300000 0  250000 300000 0  300000 300000 0  350000 300000 0  400000 300000 0  450000 300000 0  500000 300000 0  550000 300000 0  600000 300000 0  650000 300000 0  700000 300000 0  750000 300000 0  800000 300000 0  850000 300000 0  900000 300000 0  950000 300000 0  1000000 300000 0  0 350000 0  50000 350000 0  100000 350000 0  150000 350000 0  200000 350000 0  250000 350000 0  300000 350000 0  350000 350000 0  400000 350000 0  450000 350000 0  500000 350000 0  550000 350000 0  600000 350000 0  650000 350000 0  700000 350000 0  750000 350000 0  800000 350000 0  850000 350000 0  900000 350000 0  950000 350000 0  1000000 350000 0  0 400000 0  50000 400000 0  100000 400000 0  150000 400000 0  200000 400000 0  250000 400000 0  300000 400000 0  350000 400000 0  400000 400000 0  450000 400000 0  500000 400000 0  550000 400000 0  600000 400000 0  650000 400000 0  700000 400000 0  750000 400000 0  800000 400000 0  850000 400000 0  900000 400000 0  950000 400000 0  1000000 400000 0  0 450000 0  50000 450000 0  100000 450000 0  150000 450000 0  200000 450000 0  250000 450000 0  300000 450000 0  350000 450000 0  400000 450000 0  450000 450000 0  500000 450000 0  550000 450000 0  600000 450000 0  650000 450000 0  700000 450000 0  750000 450000 0  800000 450000 0  850000 450000 0  900000 450000 0  950000 450000 0  1000000 450000 0  0 500000 0  50000 500000 0  100000 500000 0  150000 500000 0  200000 500000 0  250000 500000 0  300000 500000 0  350000 500000 0  400000 500000 0  450000 500000 0  500000 500000 0  550000 500000 0  600000 500000 0  650000 500000 0  700000 500000 0  750000 500000 0  800000 500000 0  850000 500000 0  900000 500000 0  950000 500000 0  1000000 500000 0  0 550000 0  50000 550000 0  100000 550000 0  150000 550000 0  200000 550000 0  250000 550000 0  300000 550000 0  350000 550000 0  400000 550000 0  450000 550000 0  500000 550000 0  550000 550000 0  600000 550000 0  650000 550000 0  700000 550000 0  750000 550000 0  800000 550000 0  850000 550000 0  900000 550000 0  950000 550000 0  1000000 550000 0  0 600000 0  50000 600000 0  100000 600000 0  150000 600000 0  200000 600000 0  250000 600000 0  300000 600000 0  350000 600000 0  400000 600000 0  450000 600000 0  500000 600000 0  550000 600000 0  600000 600000 0  650000 600000 0  700000 600000 0  750000 600000 0  800000 600000 0  850000 600000 0  900000 600000 0  950000 600000 0  1000000 600000 0  0 650000 0  50000 650000 0  100000 650000 0  150000 650000 0  200000 650000 0  250000 650000 0  300000 650000 0  350000 650000 0  400000 650000 0  450000 650000 0  500000 650000 0  550000 650000 0  600000 650000 0  650000 650000 0  700000 650000 0  750000 650000 0  800000 650000 0  850000 650000 0  900000 650000 0  950000 650000 0  1000000 650000 0  0 700000 0  50000 700000 0  100000 700000 0  150000 700000 0  200000 700000 0  250000 700000 0  300000 700000 0  350000 700000 0  400000 700000 0  450000 700000 0  500000 700000 0  550000 700000 0  600000 700000 0  650000 700000 0  700000 700000 0  750000 700000 0  800000 700000 0  850000 700000 0  900000 700000 0  950000 700000 0  1000000 700000 0  0 750000 0  50000 750000 0  100000 750000 0  150000 750000 0  200000 750000 0  250000 750000 0  300000 750000 0  350000 750000 0  400000 750000 0  450000 750000 0  500000 750000 0  550000 750000 0  600000 750000 0  650000 750000 0  700000 750000 0  750000 750000 0  800000 750000 0  850000 750000 0  900000 750000 0  950000 750000 0  1000000 750000 0  0 800000 0  50000 800000 0  100000 800000 0  150000 800000 0  200000 800000 0  250000 800000 0  300000 800000 0  350000 800000 0  400000 800000 0  450000 800000 0  500000 800000 0  550000 800000 0  600000 800000 0  650000 800000 0  700000 800000 0  750000 800000 0  800000 800000 0  850000 800000 0  900000 800000 0  950000 800000 0  1000000 800000 0  0 850000 0  50000 850000 0  100000 850000 0  150000 850000 0  200000 850000 0  250000 850000 0  300000 850000 0  350000 850000 0  400000 850000 0  450000 850000 0  500000 850000 0  550000 850000 0  600000 850000 0  650000 850000 0  700000 850000 0  750000 850000 0  800000 850000 0  850000 850000 0  900000 850000 0  950000 850000 0  1000000 850000 0  0 900000 0  50000 900000 0  100000 900000 0  150000 900000 0  200000 900000 0  250000 900000 0  300000 900000 0  350000 900000 0  400000 900000 0  450000 900000 0  500000 900000 0  550000 900000 0  600000 900000 0  650000 900000 0  700000 900000 0  750000 900000 0  800000 900000 0  850000 900000 0  900000 900000 0  950000 900000 0  1000000 900000 0  0 950000 0  50000 950000 0  100000 950000 0  150000 950000 0  200000 950000 0  250000 950000 0  300000 950000 0  350000 950000 0  400000 950000 0  450000 950000 0  500000 950000 0  550000 950000 0  600000 950000 0  650000 950000 0  700000 950000 0  750000 950000 0  800000 950000 0  850000 950000 0  900000 950000 0  950000 950000 0  1000000 950000 0  0 1000000 0  50000 1000000 0  100000 1000000 0  150000 1000000 0  200000 1000000 0  250000 1000000 0  300000 1000000 0  350000 1000000 0  400000 1000000 0  450000 1000000 0  500000 1000000 0  550000 1000000 0  600000 1000000 0  650000 1000000 0  700000 1000000 0  750000 1000000 0  800000 1000000 0  850000 1000000 0  900000 1000000 0  950000 1000000 0  1000000 1000000 0  0 1050000 0  50000 1050000 0  100000 1050000 0  150000 1050000 0  200000 1050000 0  250000 1050000 0  300000 1050000 0  350000 1050000 0  400000 1050000 0  450000 1050000 0  500000 1050000 0  550000 1050000 0  600000 1050000 0  650000 1050000 0  700000 1050000 0  750000 1050000 0  800000 1050000 0  850000 1050000 0  900000 1050000 0  950000 1050000 0  1000000 1050000 0  0 1100000 0  50000 1100000 0  100000 1100000 0  150000 1100000 0  200000 1100000 0  250000 1100000 0  300000 1100000 0  350000 1100000 0  400000 1100000 0  450000 1100000 0  500000 1100000 0  550000 1100000 0  600000 1100000 0  650000 1100000 0  700000 1100000 0  750000 1100000 0  800000 1100000 0  850000 1100000 0  900000 1100000 0  950000 1100000 0  1000000 1100000 0  0 1150000 0  50000 1150000 0  100000 1150000 0  150000 1150000 0  200000 1150000 0  250000 1150000 0  300000 1150000 0  350000 1150000 0  400000 1150000 0  450000 1150000 0  500000 1150000 0  550000 1150000 0  600000 1150000 0  650000 1150000 0  700000 1150000 0  750000 1150000 0  800000 1150000 0  850000 1150000 0  900000 1150000 0  950000 1150000 0  1000000 1150000 0  0 1200000 0  50000 1200000 0  100000 1200000 0  150000 1200000 0  200000 1200000 0  250000 1200000 0  300000 1200000 0  350000 1200000 0  400000 1200000 0  450000 1200000 0  500000 1200000 0  550000 1200000 0  600000 1200000 0  650000 1200000 0  700000 1200000 0  750000 1200000 0  800000 1200000 0  850000 1200000 0  900000 1200000 0  950000 1200000 0  1000000 1200000 0  0 1250000 0  50000 1250000 0  100000 1250000 0  150000 1250000 0  200000 1250000 0  250000 1250000 0  300000 1250000 0  350000 1250000 0  400000 1250000 0  450000 1250000 0  500000 1250000 0  550000 1250000 0  600000 1250000 0  650000 1250000 0  700000 1250000 0  750000 1250000 0  800000 1250000 0  850000 1250000 0  900000 1250000 0  950000 1250000 0  1000000 1250000 0  0 1300000 0  50000 1300000 0  100000 1300000 0  150000 1300000 0  200000 1300000 0  250000 1300000 0  300000 1300000 0  350000 1300000 0  400000 1300000 0  450000 1300000 0  500000 1300000 0  550000 1300000 0  600000 1300000 0  650000 1300000 0  700000 1300000 0  750000 1300000 0  800000 1300000 0  850000 1300000 0  900000 1300000 0  950000 1300000 0  1000000 1300000 0  0 1350000 0  50000 1350000 0  100000 1350000 0  150000 1350000 0  200000 1350000 0  250000 1350000 0  300000 1350000 0  350000 1350000 0  400000 1350000 0  450000 1350000 0  500000 1350000 0  550000 1350000 0  600000 1350000 0  650000 1350000 0  700000 135
[...]
<PointData  Vectors="f_15"> 
<DataArray  type="Float64"  Name="f_15"  NumberOfComponents="3" format="ascii">-3.2006921341375884e-10 3.1643091318584093e-10 0.0000000000000000e+00  -5.9314830637557836e-10 2.6442900486548182e-10 0.0000000000000000e+00  -1.0767710688196966e-09 2.4445825522316763e-10 0.0000000000000000e+00  -1.5424567766768339e-09 2.2711013175471195e-10 0.0000000000000000e+00  -1.9682355479496567e-09 2.0618327392921192e-10 0.0000000000000000e+00  -2.3420565394135575e-09 1.8114376234363235e-10 0.0000000000000000e+00  -2.6539797719410339e-09 1.5231982682265295e-10 0.0000000000000000e+00  -2.8958747657705823e-09 1.2031613614750217e-10 0.0000000000000000e+00  -3.0614773748290297e-09 8.5893871903629451e-11 0.0000000000000000e+00  -3.1465414790572000e-09 4.9907816646162124e-11 0.0000000000000000e+00  -3.1489555101336611e-09 1.3263704520776097e-11 0.0000000000000000e+00  -3.0688007626022127e-09 -2.3115865136844493e-11 0.0000000000000000e+00  -2.9083480156256957e-09 -5.8321991929699559e-11 0.0000000000000000e+00  -2.6719931515496064e-09 -9.1488812300155925e-11 0.0000000000000000e+00  -2.3661425102788137e-09 -1.2182469799452511e-10 0.0000000000000000e+00  -1.9991126073153894e-09 -1.4865856686361259e-10 0.0000000000000000e+00  -1.5813849856142018e-09 -1.7155669700322608e-10 0.0000000000000000e+00  -1.1277889185528029e-09 -1.9067273543418701e-10 0.0000000000000000e+00  -6.6803102469927511e-10 -2.0652263377719731e-10 0.0000000000000000e+00  -2.9179804109507383e-10 -2.0163275992147959e-10 0.0000000000000000e+00  -1.3359068046858505e-10 -1.2085400607048016e-10 0.0000000000000000e+00  -2.7073682822362548e-10 5.7261644422254206e-10 0.0000000000000000e+00  -5.0160974215710658e-10 4.9957740616305127e-10 0.0000000000000000e+00  -8.9097298406704587e-10 5.0592350529974880e-10 0.0000000000000000e+00  -1.3155721934290461e-09 4.8034064872096393e-10 0.0000000000000000e+00  -1.7186214666658892e-09 4.3706025841698016e-10 0.0000000000000000e+00  -2.0804995553019960e-09 3.8066941344043726e-10 0.0000000000000000e+00  -2.3895992339717414e-09 3.1375862958874297e-10 0.0000000000000000e+00  -2.6370744431792859e-09 2.3850918266607229e-10 0.0000000000000000e+00  -2.8161634862391377e-09 1.5708270153031776e-10 0.0000000000000000e+00  -2.9221170805224771e-09 7.1712175337468893e-11 0.0000000000000000e+00  -2.9522254804484249e-09 -1.5301562091512983e-11 0.0000000000000000e+00  -2.9058509264062217e-09 -1.0162539693457040e-10 0.0000000000000000e+00  -2.7844375222686111e-09 -1.8493872845454322e-10 0.0000000000000000e+00  -2.5914930226964801e-09 -2.6297636371174989e-10 0.0000000000000000e+00  -2.3325544228546553e-09 -3.3355888500774260e-10 0.0000000000000000e+00  -2.0151876949096253e-09 -3.9459063914557478e-10 0.0000000000000000e+00  -1.6492059987595030e-09 -4.4396248235926538e-10 0.0000000000000000e+00  -1.2478319887253387e-09 -4.7904622451976339e-10 0.0000000000000000e+00  -8.3288999050962521e-10 -4.9379959959738966e-10 0.0000000000000000e+00  -4.5800460032929247e-10 -4.6473113993098581e-10 0.0000000000000000e+00  -2.2405459501526038e-10 -2.6488563673792068e-10 0.0000000000000000e+00  -2.6338854745657932e-10 1.0280896208641708e-09 0.0000000000000000e+00  -5.1397660594806405e-10 8.8143839458978169e-10 0.0000000000000000e+00  -8.9044122462124377e-10 8.7690001997405230e-10 0.0000000000000000e+00  -1.2856582404905457e-09 8.3481282255448674e-10 0.0000000000000000e+00  -1.6607131909881054e-09 7.6179524609014113e-10 0.0000000000000000e+00  -1.9983904336354214e-09 6.6446524712390926e-10 0.0000000000000000e+00  -2.2870489399018787e-09 5.4776502911983645e-10 0.0000000000000000e+00  -2.5180163080743180e-09 4.1588321452257525e-10 0.0000000000000000e+00  -2.6847825528786910e-09 2.7284162824832416e-10 0.0000000000000000e+00  -2.7828397343201763e-09 1.2270005694944290e-10 0.0000000000000000e+00  -2.8096671770830408e-09 -3.0407767848731225e-11 0.0000000000000000e+00  -2.7647393439965017e-09 -1.8230608314517111e-10 0.0000000000000000e+00  -2.6495279546818206e-09 -3.2883156509460706e-10 0.0000000000000000e+00  -2.4674928772493272e-09 -4.6588429586430701e-10 0.0000000000000000e+00  -2.2240720669251452e-09 -5.8944866097818181e-10 0.0000000000000000e+00  -1.9267118005397469e-09 -6.9553597428140041e-10 0.0000000000000000e+00  -1.5850765779525641e-09 -7.7993149916312346e-10 0.0000000000000000e+00  -1.2119499443406119e-09 -8.3743165688674211e-10 0.0000000000000000e+00  -8.2672324471804163e-10 -8.5971578091119665e-10 0.0000000000000000e+00  -4.7228388818371942e-10 -8.3259536791379492e-10 0.0000000000000000e+00  -2.4068181881267692e-10 -6.0162049778193782e-10 0.0000000000000000e+00  -2.7046511749204341e-10 1.4777610344253448e-09 0.0000000000000000e+00  -5.1264124877208407e-10 1.3080576979187251e-09 0.0000000000000000e+00  -8.8519873089347855e-10 1.2766109326022138e-09 0.0000000000000000e+00  -1.2707807836729466e-09 1.2098036289454660e-09 0.0000000000000000e+00  -1.6321894352802060e-09 1.1037352924310223e-09 0.0000000000000000e+00  -1.9554052611415960e-09 9.6364536681138472e-10 0.0000000000000000e+00  -2.2307201899942095e-09 7.9551845451193304e-10 0.0000000000000000e+00  -2.4503272139616040e-09 6.0521181606394467e-10 0.0000000000000000e+00  -2.6082012882612170e-09 3.9856982527594946e-10 0.0000000000000000e+00  -2.7001567037402010e-09 1.8152547138281174e-10 0.0000000000000000e+00  -2.7238915078260702e-09 -3.9887944140977639e-11 0.0000000000000000e+00  -2.6790116148771621e-09 -2.5958196508085366e-10 0.0000000000000000e+00  -2.5670357479208742e-09 -4.7148097822386655e-10 0.0000000000000000e+00  -2.3913831786580489e-09 -6.6958649712870987e-10 0.0000000000000000e+00  -2.1573479643748493e-09 -8.4801074419631686e-10 0.0000000000000000e+00  -1.8720742934013667e-09 -1.0009428477818998e-09 0.0000000000000000e+00  -1.5446026353546482e-09 -1.1224985121930436e-09 0.0000000000000000e+00  -1.1863395931287948e-09 -1.2064394692888639e-09 0.0000000000000000e+00  -8.1372578527733834e-10 -1.2458773431350999e-09 0.0000000000000000e+00  -4.6627237357422033e-10 -1.2337777560264268e-09 0.0000000000000000e+00  -2.4518538505460666e-10 -1.0116223137503751e-09 0.0000000000000000e+00  -2.8529923499700058e-10 1.9195291117857802e-09 0.0000000000000000e+00  -5.1405222636240543e-10 1.7374909731312342e-09 0.0000000000000000e+00  -8.8378468445321925e-10 1.6810116662831160e-09 0.0000000000000000e+00  -1.2668232129862899e-09 1.5851690628977853e-09 0.0000000000000000e+00  -1.6236885253236178e-09 1.4434249723607637e-09 0.0000000000000000e+00  -1.9407838834285486e-09 1.2596515513001507e-09 0.0000000000000000e+00  -2.2094888342028136e-09 1.0401673892722995e-09 0.0000000000000000e+00  -2.4228948881384740e-09 7.9204142670812944e-10 0.0000000000000000e+00  -2.5755653467704025e-09 5.2270776954406150e-10 0.0000000000000000e+00  -2.6636911932850796e-09 2.3985099273105681e-10 0.0000000000000000e+00  -2.6852090424725247e-09 -4.8673205002359591e-11 0.0000000000000000e+00  -2.6398571278343132e-09 -3.3492738508426663e-10 0.0000000000000000e+00  -2.5291888460326541e-09 -6.1099013646696683e-10 0.0000000000000000e+00  -2.3565530962044903e-09 -8.6905080949454839e-10 0.0000000000000000e+00  -2.1270413103476392e-09 -1.1014891852076921e-09 0.0000000000000000e+00  -1.8474035650381776e-09 -1.3009346117792275e-09 0.0000000000000000e+00  -1.5259978872394105e-09 -1.4603297529679499e-09 0.0000000000000000e+00  -1.1732128335399497e-09 -1.5731208004494013e-09 0.0000000000000000e+00  -8.0466925350341258e-10 -1.6336569562151747e-09 0.0000000000000000e+00  -4.6198933665390820e-10 -1.6372965094478024e-09 0.0000000000000000e+00  -2.5670137966401076e-10 -1.4258728544767114e-09 0.0000000000000000e+00  -3.0656870469354672e-10 2.3588368145106876e-09 0.0000000000000000e+00  -5.2105143693307100e-10 2.1664706073758347e-09 0.0000000000000000e+00  -8.8972639298461441e-10 2.0878038111725475e-09 0.0000000000000000e+00  -1.2741061636264364e-09 1.9616573212322759e-09 0.0000000000000000e+00  -1.6317288309657361e-09 1.7823466903387417e-09 0.0000000000000000e+00  -1.9482781621405613e-09 1.5536316944644789e-09 0.0000000000000000e+00  -2.2153818944485577e-09 1.2822794987501058e-09 0.0000000000000000e+00  -2.4266405603198999e-09 9.7639411536299064e-10 0.0000000000000000e+00  -2.5770822970307031e-09 6.4482088179825678e-10 0.0000000000000000e+00  -2.6632454395880275e-09 2.9685946296461601e-10 0.0000000000000000e+00  -2.6832971189100953e-09 -5.7919376057906501e-11 0.0000000000000000e+00  -2.6371002468648879e-09 -4.0982478701869758e-10 0.0000000000000000e+00  -2.5262314153066421e-09 -7.4918753343522404e-10 0.0000000000000000e+00  -2.3539569080238511e-09 -1.0664992997679861e-09 0.0000000000000000e+00  -2.1251671992779991e-09 -1.3525553476009879e-09 0.0000000000000000e+00  -1.8462797092728461e-09 -1.5986175507488795e-09 0.0000000000000000e+00  -1.5252137474324063e-09 -1.7966458592017965e-09 0.0000000000000000e+00  -1.1720228255184846e-09 -1.9396948659271016e-09 0.0000000000000000e+00  -8.0288271340692998e-10 -2.0223267323166509e-09 0.0000000000000000e+00  -4.6301984058257481e-10 -2.0401143456567869e-09 0.0000000000000000e+00  -2.7452717502242157e-10 -1.8346837343274200e-09 0.0000000000000000e+00  -3.3382343969075942e-10 2.8006387519390594e-09 0.0000000000000000e+00  -5.3358189114685663e-10 2.5980834607616988e-09 0.0000000000000000e+00  -9.0320006329904826e-10 2.4986172013572881e-09 0.0000000000000000e+00  -1.2916244587908441e-09 2.3419907193629183e-09 0.0000000000000000e+00  -1.6532144879138020e-09 2.1238713441434091e-09 0.0000000000000000e+00  -1.9726500511219620e-09 1.8488848289109794e-09 0.0000000000000000e+00  -2.2413936310099227e-09 1.5246491777117233e-09 0.0000000000000000e+00  -2.4532361175141674e-09 1.1603745211579901e-09 0.0000000000000000e+00  -2.6034983459821669e-09 7.6626272294712532e-10 0.0000000000000000e+00  -2.6889890505998862e-09 3.5313930722114216e-10 0.0000000000000000e+00  -2.7080739452750490e-09 -6.7805131463146254e-11 0.0000000000000000e+00  -2.6607256475588230e-09 -4.8522218345221150e-10 0.0000000000000000e+00  -2.5485369501883977e-09 -8.8779214840231104e-10 0.0000000000000000e+00  -2.3746981366168566e-09 -1.2644089837565227e-09 0.0000000000000000e+00  -2.1439404450695144e-09 -1.6043813169573140e-09 0.0000000000000000e+00  -1.8624687683002543e-09 -1.8976739905694621e-09 0.0000000000000000e+00  -1.5380281704800954e-09 -2.1352283285009755e-09 0.0000000000000000e+00  -1.1807946214995315e-09 -2.3094009032138649e-09 0.0000000000000000e+00  -8.0805115727074540e-10 -2.4142464601877133e-09 0.0000000000000000e+00  -4.6911564326727434e-10 -2.4447738655036312e-09 0.0000000000000000e+00  -2.9798403689325556e-10 -2.2408189408681992e-09 0.0000000000000000e+00  -3.6689544899276703e-10 3.2487040479302769e-09 0.0000000000000000e+00  -5.5070668258917484e-10 3.0355312823743273e-09 0.0000000000000000e+00  -9.2266274400427185e-10 2.9157013914741491e-09 0.0000000000000000e+00  -1.3168621966471696e-09 2.7283442431622428e-09 0.0000000000000000e+00  -1.6841931378449665e-09 2.4704142291168527e-09 0.0000000000000000e+00  -2.0083072930232246e-09 2.1478398814001382e-09 0.0000000000000000e+00  -2.2803863027188483e-09 1.7694455107818399e-09 0.0000000000000000e+00  -2.4942648757258311e-09 1.3457135636562482e-09 0.0000000000000000e+00  -2.6454472281983238e-09 8.8823483147599405e-10 0.0000000000000000e+00  -2.7309514961016450e-09 4.0932224362433992e-10 0.0000000000000000e+00  -2.7493122203268164e-09 -7.8285876395938368e-11 0.0000000000000000e+00  -2.7005966224002434e-09 -5.6166926376404402e-10 0.0000000000000000e+00  -2.5864068805648102e-09 -1.0279443670378463e-09 0.0000000000000000e+00  -2.4098642982871897e-09 -1.4644829909948753e-09 0.0000000000000000e+00  -2.1755784231771503e-09 -1.8591542881730230e-09 0.0000000000000000e+00  -1.8896333162493304e-09 -2.2006137363140079e-09 0.0000000000000000e+00  -1.5597616142044682e-09 -2.4786613803697449e-09 0.0000000000000000e+00  -1.1964709046882351e-09 -2.6846724860012089e-09 0.0000000000000000e+00  -8.1834366308211659e-10 -2.8117912638191546e-09 0.0000000000000000e+00  -4.7918260906320362e-10 -2.8542025144646405e-09 0.0000000000000000e+00  -3.2687011998592976e-10 -2.6485215824505803e-09 0.0000000000000000e+00  -4.0577096165040029e-10 3.7052964731294524e-09 0.0000000000000000e+00  -5.7109559542582104e-10 3.4810199405678216e-09 0.0000000000000000e+00  -9.4564028853377801e-10 3.3405850793947122e-09 0.0000000000000000e+00  -1.3461485552543967e-09 3.1218873563817516e-09 0.0000000000000000e+00  -1.7196354148597683e-09 2.8230783241635864e-09 0.0000000000000000e+00  -2.0487554034627464e-09 2.4515756059892887e-09 0.0000000000000000e+00  -2.3244458374229290e-09 2.0176499495091994e-09 0.0000000000000000e+00  -2.5405825536839166e-09 1.5332162478449884e-09 0.0000000000000000e+00  -2.6928395068945283e-09 1.0113164701633454e-09 0.0000000000000000e+00  -2.7784359728756692e-09 4.6573766549536717e-10 0.0000000000000000e+00  -2.7960708910355382e-09 -8.9294339656236837e-11 0.0000000000000000e+00  -2.7458988736218851e-09 -6.3936949327212388e-10 0.0000000000000000e+00  -2.6295192166206426e-09 -1.1701224528481659e-09 0.0000000000000000e+00  -2.4499723191855505e-09 -1.6674641471285416e-09 0.0000000000000000e+00  -2.2117459579768764e-09 -2.1178428795639044e-09 0.0000000000000000e+00  -1.9208263093660945e-09 -2.5085569420720952e-09 0.0000000000000000e+00  -1.5849790195798986e-09 -2.8281305827786208e-09 0.0000000000000000e+00  -1.2150924386017294e-09 -3.0667414972248200e-09 0.0000000000000000e+00  -8.3111529420652457e-10 -3.2163946870673005e-09 0.0000000000000000e+00  -4.9178343314862382e-10 -3.2703634527134652e-09 0.0000000000000000e+00  -3.6116255556015051e-10 -3.0610421838883699e-09 0.0000000000000000e+00  -4.5053174585888398e-10 4.1709597930131612e-09 0.0000000000000000e+00  -5.9313027527494531e-10 3.9353225569460197e-09 0.0000000000000000e+00  -9.6897089669289747e-10 3.7735090829047346e-09 0.0000000000000000e+00  -1.3748045555971046e-09 3.5224752643823289e-09 0.0000000000000000e+00  -1.7533287060765602e-09 3.1815432677907454e-09 0.0000000000000000e+00  -2.0862456017284917e-09 2.7597383995647683e-09 0.0000000000000000e+00  -2.3643693500729854e-09 2.2689420704782954e-09 0.0000000000000000e+00  -2.5817225412006363e-09 1.7226280217539459e-09 0.0000000000000000e+00  -2.7342302983176284e-09 1.1353423889896107e-09 0.0000000000000000e+00  -2.8193720964391122e-09 5.2232728243930287e-10 0.0000000000000000e+00  -2.8360454414231691e-09 -1.0077548757726024e-10 0.0000000000000000e+00  -2.7844977208318002e-09 -7.1816367807746691e-10 0.0000000000000000e+00  -2.6663020311821668e-09 -1.3140859200908581e-09 0.0000000000000000e+00  -2.4843721862044423e-09 -1.8730594617299083e-09 0.0000000000000000e+00  -2.2430170177165277e-09 -2.3801270723137128e-09 0.0000000000000000e+00  -1.9480663172682633e-09 -2.8211769273369530e-09 0.0000000000000000e+00  -1.6072626374322000e-09 -3.1833339698357080e-09 0.0000000000000000e+00  -1.2318247647856027e-09 -3.4554080150078364e-09 0.0000000000000000e+00  -8.4308718542125869e-10 -3.6281092456391559e-09 0.0000000000000000e+00  -5.0520927931371394e-10 -3.6937606257957842e-09 0.0000000000000000e+00  -4.0092303961920931e-10 -3.4800725295592400e-09 0.0000000000000000e+00  -5.0132277148292889e-10 4.6442558596838082e-09 0.0000000000000000e+00  -6.1488615284958690e-10 4.3974364075676957e-09 0.0000000000000000e+00  -9.8880838176278148e-10 4.2130268307873850e-09 0.0000000000000000e+00  -1.3970977036227764e-09 3.9283150629308000e-09 0.0000000000000000e+00  -1.7776980429626401e-09 3.5438520247899298e-09 0.0000000000000000e+00  -2.1114289780556983e-09 3.0703976968285661e-09 0.0000000000000000e+00  -2.3891718096858508e-09 2.5215817365396708e-09 0.0000000000000000e+00  -2.6052955857133434e-09 1.9125334551912814e-09 0.0000000000000000e+00  -2.7561512043803844e-09 1.2593274230947483e-09 0.0000000000000000e+00  -2.8396114152702536e-09 5.7860875048422765e-10 0.0000000000000000e+00  -2.8548521068857279e-09 -1.1267598798318243e-10 0.0000000000000000e+00  -2.8022330029146990e-09 -7.9747319165053405e-10 0.0000000000000000e+00  -2.6832606491083592e-09 -1.4587814990665811e-09 0.0000000000000000e+00  -2.5006306836490543e-09 -2.0798226800720482e-09 0.0000000000000000e+00  -2.2583452762181044e-09 -2.6442684024141356e-09 0.0000000000000000e+00  -1.9619313757926707e-09 -3.1365543146842558e-09 0.0000000000000000e+00  -1.6189598434433896e-09 -3.5422925671739278e-09 0.0000000000000000e+00  -1.2408539014367717e-09 -3.8487700933970793e-09 0.0000000000000000e+00  -8.5032143071081065e-10 -4.0452610792531957e-09 0.0000000000000000e+00  -5.1744841402420231e-10 -4.1231031447272329e-09 0.0000000000000000e+00  -4.4626810228593897e-10 -3.9054979182656831e-09 0.0000000000000000e+00  -5.5833336130409888e-10 5.1214164923082382e-09 0.0000000000000000e+00  -6.3406533688611393e-10 4.8642161701781785e-09 0.0000000000000000e+00  -1.0005129408068694e-09 4.6555991287248287e-09 0.0000000000000000e+00  -1.4060676907128330e-09 4.3355750170598640e-09 0.0000000000000000e+00  -1.7835265021310045e-09 3.9060775937516062e-09 0.0000000000000000e+00  -2.1129445448426928e-09 3.3797748226572790e-09 0.0000000000000000e+00  -2.3855416674186859e-09 2.7721904509677544e-09 0.0000000000000000e+00  -2.5963340765670274e-09 2.1001877146855405e-09 0.0000000000000000e+00  -2.7423742517524405e-09 1.3813544184242255e-09 0.0000000000000000e+00  -2.8221441875321329e-09 6.3362867201767082e-10 0.0000000000000000e+00  -2.8352297722034511e-09 -1.2492127136868633e-10 0.0000000000000000e+00  -2.7821368555874647e-09 -8.7620909486168043e-10 0.0000000000000000e+00  -2.6642407699219441e-09 -1.6021930972863806e-09 0.0000000000000000e+00  -2.4838683042966709e-09 -2.2849576020896596e-09 0.0000000000000000e+00  -2.2445015605310828e-09 -2.9068773523143378e-09 0.0000000000000000e+00  -1.9511184429949930e-09 -3.4509114651567208e-09 0.0000000000000000e+00  -1.6108724036992747e-09 -3.9010461340922393e-09 0.0000000000000000e+00  -1.2351895782782297e-09 -4.2428771557418428e-09 0.0000000000000000e+00  -8.4810152313752134e-10 -4.4640787841111936e-09 0.0000000000000000e+00  -5.2611438833296385e-10 -4.5549524219356782e-09 0.0000000000000000e+00  -4.9735473201918595e-10 -4.3351285946046302e-09 0.0000000000000000e+00  -6.2178823096406376e-10 5.5958917098262310e-09 0.0000000000000000e+00  -6.4790484047375101e-10 5.3299357506506162e-09 0.0000000000000000e+00  -9.9847898198908736e-10 5.0951252922576917e-09 0.0000000000000000e+00  -1.3932620304116706e-09 4.7379101856791770e-09 0.0000000000000000e+00  -1.7595779416593987e-09 4.2618743334481764e-09 0.0000000000000000e+00  -2.0769122595752868e-09 3.6818426908452942e-09 0.0000000000000000e+00  -2.3372026983777485e-09 3.0154135913825705e-09 0.0000000000000000e+00  -2.5365382658432333e-09 2.2812540012606036e-09 0.0000000000000000e+00  -2.6730705216696289e-09 1.4983997719421650e-09 0.0000000000000000e+00  -2.7462052400369850e-09 6.8588679232587779e-10 0.0000000000000000e+00  -2.7561303701425074e-09 -1.3738793303042853e-10 0.0000000000000000e+00  -2.7035457255445389e-09 -9.5264424397815413e-10 0.0000000000000000e+00  -2.5895970464220676e-09 -1.7411243973895436e-09 0.0000000000000000e+00  -2.4160153442052216e-09 -2.4840272132021493e-09 0.0000000000000000e+00  -2.1854418725159924e-09 -3.1625662953387684e-09 0.0000000000000000e+00  -1.9019376254126703e-09 -3.7582238491792175e-09 0.0000000000000000e+00  -1.5718772474450801e-09 -4.2532339053215269e-09 0.0000000000000000e+00  -1.2063983959823951e-09 -4.6312910977977122e-09 0.0000000000000000e+00  -8.3075718282429496e-10 -4.8782511569593457e-09 0.0000000000000000e+00  -5.2835007430655109e-10 -4.9832967518019701e-09 0.0000000000000000e+00  -5.5437101327921523e-10 -4.7643421996998215e-09 0.0000000000000000e+00  -6.9194975076647444e-10 6.0577786545155129e-09 0.0000000000000000e+00  -6.5306853711874496e-10 5.7857505878336021e-09 0.0000000000000000e+00  -9.7591779756022582e-10 5.5223764014838535e-09 0.0000000000000000e+00  -1.3483973394663888e-09 5.1258782767716872e-09 0.0000000000000000e+00  -1.6921222503348241e-09 4.6019022946389696e-09 0.0000000000000000e+00  -1.986312255