<?xml version="1.0"?>
<VTKFile type="UnstructuredGrid"  version="0.1"  >
<UnstructuredGrid>
<Piece  NumberOfPoints="651" NumberOfCells="1200">
<Points>
<DataArray  type="Float64"  NumberOfComponents="3"  format="ascii">0 0 0  50000 0 0  100000 0 0  150000 0 0  200000 0 0  250000 0 0  300000 0 0  350000 0 0  400000 0 0  450000 0 0  500000 0 0  550000 0 0  600000 0 0  650000 0 0  700000 0 0  750000 0 0  800000 0 0  850000 0 0  900000 0 0  950000 0 0  1000000 0 0  0 50000 0  50000 50000 0  100000 50000 0  150000 50000 0  200000 50000 0  250000 50000 0  300000 50000 0  350000 50000 0  400000 50000 0  450000 50000 0  500000 50000 0  550000 50000 0  600000 50000 0  650000 50000 0  700000 50000 0  750000 50000 0  800000 50000 0  850000 50000 0  900000 50000 0  950000 50000 0  1000000 50000 0  0 100000 0  50000 100000 0  100000 100000 0  150000 100000 0  200000 100000 0  250000 100000 0  300000 100000 0  350000 100000 0  400000 100000 0  450000 100000 0  500000 100000 0  550000 100000 0  600000 100000 0  650000 100000 0  700000 100000 0  750000 100000 0  800000 100000 0  850000 100000 0  900000 100000 0  950000 100000 0  1000000 100000 0  0 150000 0  50000 150000 0  100000 150000 0  150000 150000 0  200000 150000 0  250000 150000 0  300000 150000 0  350000 150000 0  400000 150000 0  450000 150000 0  500000 150000 0  550000 150000 0  600000 150000 0  650000 150000 0  700000 150000 0  750000 150000 0  800000 150000 0  850000 150000 0  900000 150000 0  950000 150000 0  1000000 150000 0  0 200000 0  50000 200000 0  100000 200000 0  150000 200000 0  200000 200000 0  250000 200000 0  300000 200000 0  350000 200000 0  400000 200000 0  450000 200000 0  500000 200000 0  550000 200000 0  600000 200000 0  650000 200000 0  700000 200000 0  750000 200000 0  800000 200000 0  850000 200000 0  900000 200000 0  950000 200000 0  1000000 200000 0  0 250000 0  50000 250000 0  100000 250000 0  150000 250000 0  200000 250000 0  250000 250000 0  300000 250000 0  350000 250000 0  400000 250000 0  450000 250000 0  500000 250000 0  550000 250000 0  600000 250000 0  650000 250000 0  700000 250000 0  750000 250000 0  800000 250000 0  850000 250000 0  900000 250000 0  950000 250000 0  1000000 250000 0  0 300000 0  50000 300000 0  100000 300000 0  150000 300000 0  200000 300000 0  250000 300000 0  300000 300000 0  350000 300000 0  400000 300000 0  450000 300000 0  500000 300000 0  550000 300000 0  600000 300000 0  650000 300000 0  700000 300000 0  750000 300000 0  800000 300000 0  850000 300000 0  900000 300000 0  950000 300000 0  1000000 300000 0  0 350000 0  50000 350000 0  100000 350000 0  150000 350000 0  200000 350000 0  250000 350000 0  300000 350000 0  350000 350000 0  400000 350000 0  450000 350000 0  500000 350000 0  550000 350000 0  600000 350000 0  650000 350000 0  700000 350000 0  750000 350000 0  800000 350000 0  850000 350000 0  900000 350000 0  950000 350000 0  1000000 350000 0  0 400000 0  50000 400000 0  100000 400000 0  150000 400000 0  200000 400000 0  250000 400000 0  300000 400000 0  350000 400000 0  400000 400000 0  450000 400000 0  500000 400000 0  550000 400000 0  600000 400000 0  650000 400000 0  700000 400000 0  750000 400000 0  800000 400000 0  850000 400000 0  900000 400000 0  950000 400000 0  1000000 400000 0  0 450000 0  50000 450000 0  100000 450000 0  150000 450000 0  200000 450000 0  250000 450000 0  300000 450000 0  350000 450000 0  400000 450000 0  450000 450000 0  500000 450000 0  550000 450000 0  600000 450000 0  650000 450000 0  700000 450000 0  750000 450000 0  800000 450000 0  850000 450000 0  900000 450000 0  950000 450000 0  1000000 450000 0  0 500000 0  50000 500000 0  100000 500000 0  150000 500000 0  200000 500000 0  250000 500000 0  300000 500000 0  350000 500000 0  400000 500000 0  450000 500000 0  500000 500000 0  550000 500000 0  600000 500000 0  650000 500000 0  700000 500000 0  750000 500000 0  800000 500000 0  850000 500000 0  900000 500000 0  950000 500000 0  1000000 500000 0  0 550000 0  50000 550000 0  100000 550000 0  150000 550000 0  200000 550000 0  250000 550000 0  300000 550000 0  350000 550000 0  400000 550000 0  450000 550000 0  500000 550000 0  550000 550000 0  600000 550000 0  650000 550000 0  700000 550000 0  750000 550000 0  800000 550000 0  850000 550000 0  900000 550000 0  950000 550000 0  1000000 550000 0  0 600000 0  50000 600000 0  100000 600000 0  150000 600000 0  200000 600000 0  250000 600000 0  300000 600000 0  350000 600000 0  400000 600000 0  450000 600000 0  500000 600000 0  550000 600000 0  600000 600000 0  650000 600000 0  700000 600000 0  750000 600000 0  800000 600000 0  850000 600000 0  900000 600000 0  950000 600000 0  1000000 600000 0  0 650000 0  50000 650000 0  100000 650000 0  150000 650000 0  200000 650000 0  250000 650000 0  300000 650000 0  350000 650000 0  400000 650000 0  450000 650000 0  500000 650000 0  550000 650000 0  600000 650000 0  650000 650000 0  700000 650000 0  750000 650000 0  800000 650000 0  850000 650000 0  900000 650000 0  950000 650000 0  1000000 650000 0  0 700000 0  50000 700000 0  100000 700000 0  150000 700000 0  200000 700000 0  250000 700000 0  300000 700000 0  350000 700000 0  400000 700000 0  450000 700000 0  500000 700000 0  550000 700000 0  600000 700000 0  650000 700000 0  700000 700000 0  750000 700000 0  800000 700000 0  850000 700000 0  900000 700000 0  950000 700000 0  1000000 700000 0  0 750000 0  50000 750000 0  100000 750000 0  150000 750000 0  200000 750000 0  250000 750000 0  300000 750000 0  350000 750000 0  400000 750000 0  450000 750000 0  500000 750000 0  550000 750000 0  600000 750000 0  650000 750000 0  700000 750000 0  750000 750000 0  800000 750000 0  850000 750000 0  900000 750000 0  950000 750000 0  1000000 750000 0  0 800000 0  50000 800000 0  100000 800000 0  150000 800000 0  200000 800000 0  250000 800000 0  300000 800000 0  350000 800000 0  400000 800000 0  450000 800000 0  500000 800000 0  550000 800000 0  600000 800000 0  650000 800000 0  700000 800000 0  750000 800000 0  800000 800000 0  850000 800000 0  900000 800000 0  950000 800000 0  1000000 800000 0  0 850000 0  50000 850000 0  100000 850000 0  150000 850000 0  200000 850000 0  250000 850000 0  300000 850000 0  350000 850000 0  400000 850000 0  450000 850000 0  500000 850000 0  550000 850000 0  600000 850000 0  650000 850000 0  700000 850000 0  750000 850000 0  800000 850000 0  850000 850000 0  900000 850000 0  950000 850000 0  1000000 850000 0  0 900000 0  50000 900000 0  100000 900000 0  150000 900000 0  200000 900000 0  250000 900000 0  300000 900000 0  350000 900000 0  400000 900000 0  450000 900000 0  500000 900000 0  550000 900000 0  600000 900000 0  650000 900000 0  700000 900000 0  750000 900000 0  800000 900000 0  850000 900000 0  900000 900000 0  950000 900000 0  1000000 900000 0  0 950000 0  50000 950000 0  100000 950000 0  150000 950000 0  200000 950000 0  250000 950000 0  300000 950000 0  350000 950000 0  400000 950000 0  450000 950000 0  500000 950000 0  550000 950000 0  600000 950000 0  650000 950000 0  700000 950000 0  750000 950000 0  800000 950000 0  850000 950000 0  900000 950000 0  950000 950000 0  1000000 950000 0  0 1000000 0  50000 1000000 0  100000 1000000 0  150000 1000000 0  200000 1000000 0  250000 1000000 0  300000 1000000 0  350000 1000000 0  400000 1000000 0  450000 1000000 0  500000 1000000 0  550000 1000000 0  600000 1000000 0  650000 1000000 0  700000 1000000 0  750000 1000000 0  800000 1000000 0  850000 1000000 0  900000 1000000 0  950000 1000000 0  1000000 1000000 0  0 1050000 0  50000 1050000 0  100000 1050000 0  150000 1050000 0  200000 1050000 0  250000 1050000 0  300000 1050000 0  350000 1050000 0  400000 1050000 0  450000 1050000 0  500000 1050000 0  550000 1050000 0  600000 1050000 0  650000 1050000 0  700000 1050000 0  750000 1050000 0  800000 1050000 0  850000 1050000 0  900000 1050000 0  950000 1050000 0  1000000 1050000 0  0 1100000 0  50000 1100000 0  100000 1100000 0  150000 1100000 0  200000 1100000 0  250000 1100000 0  300000 1100000 0  350000 1100000 0  400000 1100000 0  450000 1100000 0  500000 1100000 0  550000 1100000 0  600000 1100000 0  650000 1100000 0  700000 1100000 0  750000 1100000 0  800000 1100000 0  850000 1100000 0  900000 1100000 0  950000 1100000 0  1000000 1100000 0  0 1150000 0  50000 1150000 0  100000 1150000 0  150000 1150000 0  200000 1150000 0  250000 1150000 0  300000 1150000 0  350000 1150000 0  400000 1150000 0  450000 1150000 0  500000 1150000 0  550000 1150000 0  600000 1150000 0  650000 1150000 0  700000 1150000 0  750000 1150000 0  800000 1150000 0  850000 1150000 0  900000 1150000 0  950000 1150000 0  1000000 1150000 0  0 1200000 0  50000 1200000 0  100000 1200000 0  150000 1200000 0  200000 1200000 0  250000 1200000 0  300000 1200000 0  350000 1200000 0  400000 1200000 0  450000 1200000 0  500000 1200000 0  550000 1200000 0  600000 1200000 0  650000 1200000 0  700000 1200000 0  750000 1200000 0  800000 1200000 0  850000 1200000 0  900000 1200000 0  950000 1200000 0  1000000 1200000 0  0 1250000 0  50000 1250000 0  100000 1250000 0  150000 1250000 0  200000 1250000 0  250000 1250000 0  300000 1250000 0  350000 1250000 0  400000 1250000 0  450000 1250000 0  500000 1250000 0  550000 1250000 0  600000 1250000 0  650000 1250000 0  700000 1250000 0  750000 1250000 0  800000 1250000 0  850000 1250000 0  900000 1250000 0  950000 1250000 0  1000000 1250000 0  0 1300000 0  50000 1300000 0  100000 1300000 0  150000 1300000 0  200000 1300000 0  250000 1300000 0  300000 1300000 0  350000 1300000 0  400000 1300000 0  450000 1300000 0  500000 1300000 0  550000 1300000 0  600000 1300000 0  650000 1300000 0  700000 1300000 0  750000 1300000 0  800000 1300000 0  850000 1300000 0  900000 1300000 0  950000 1300000 0  1000000 1300000 0  0 1350000 0  50000 1350000 0  100000 1350000 0  150000 1350000 0  200000 1350000 0  250000 1350000 0  300000 1350000 0  350000 1350000 0  400000 1350000 0  450000 1350000 0  500000 1350000 0  550000 1350000 0  600000 1350000 0  650000 1350000 0  700000 135
[...]
<PointData  Vectors="f_15"> 
<DataArray  type="Float64"  Name="f_15"  NumberOfComponents="3" format="ascii">-3.1874754424611667e-10 3.2545255259295612e-10 0.0000000000000000e+00  -5.9214106658704503e-10 2.7396817289509559e-10 0.0000000000000000e+00  -1.0765575785794536e-09 2.5455423688492930e-10 0.0000000000000000e+00  -1.5438522478034644e-09 2.3735709509469138e-10 0.0000000000000000e+00  -1.9715262895198336e-09 2.1631297348159342e-10 0.0000000000000000e+00  -2.3472369500632923e-09 1.9099433358029467e-10 0.0000000000000000e+00  -2.6608873902965621e-09 1.6178891236583901e-10 0.0000000000000000e+00  -2.9042730032751543e-09 1.2933983498311792e-10 0.0000000000000000e+00  -3.0710964011867030e-09 9.4436291196457331e-11 0.0000000000000000e+00  -3.1570914870508597e-09 5.7953874139768228e-11 0.0000000000000000e+00  -3.1601221489727805e-09 2.0813785186310143e-11 0.0000000000000000e+00  -3.0802306348411332e-09 -1.6049591314319406e-11 0.0000000000000000e+00  -2.9196312912718245e-09 -5.1717986948422321e-11 0.0000000000000000e+00  -2.6826499108181452e-09 -8.5318553016254080e-11 0.0000000000000000e+00  -2.3756195104793419e-09 -1.1605813237040682e-10 0.0000000000000000e+00  -2.0067991616308301e-09 -1.4327888525487241e-10 0.0000000000000000e+00  -1.5866661650874012e-09 -1.6659224155991262e-10 0.0000000000000000e+00  -1.1301826059600116e-09 -1.8624345777340663e-10 0.0000000000000000e+00  -6.6748002782840045e-10 -2.0282616292935544e-10 0.0000000000000000e+00  -2.8913393276460955e-10 -1.9842515635139765e-10 0.0000000000000000e+00  -1.3032320818665906e-10 -1.1709371502370784e-10 0.0000000000000000e+00  -2.6887205286949255e-10 5.8057946944748201e-10 0.0000000000000000e+00  -5.0122305304156833e-10 5.0249930673107983e-10 0.0000000000000000e+00  -8.9189169403324074e-10 5.0737325926102530e-10 0.0000000000000000e+00  -1.3159548338075287e-09 4.8227994347915863e-10 0.0000000000000000e+00  -1.7184967223047532e-09 4.3939709397332673e-10 0.0000000000000000e+00  -2.0803029644507262e-09 3.8321531032202533e-10 0.0000000000000000e+00  -2.3897004845022202e-09 3.1636831627010440e-10 0.0000000000000000e+00  -2.6377406891291620e-09 2.4108163331693246e-10 0.0000000000000000e+00  -2.8175712307806101e-09 1.5954656519510239e-10 0.0000000000000000e+00  -2.9243626324417759e-09 7.4012259737257488e-11 0.0000000000000000e+00  -2.9553320908545731e-09 -1.3214366316973761e-11 0.0000000000000000e+00  -2.9097727315859269e-09 -9.9800741402970782e-11 0.0000000000000000e+00  -2.7890610166289461e-09 -1.8343035714248070e-10 0.0000000000000000e+00  -2.5966373785233500e-09 -2.6184312390405529e-10 0.0000000000000000e+00  -2.3379729447130735e-09 -3.3286337105768498e-10 0.0000000000000000e+00  -2.0205751218109803e-09 -3.9439314497176374e-10 0.0000000000000000e+00  -1.6542207041338754e-09 -4.4429987117587193e-10 0.0000000000000000e+00  -1.2521407758223904e-09 -4.7986863908613992e-10 0.0000000000000000e+00  -8.3619959980367586e-10 -4.9480009036710118e-10 0.0000000000000000e+00  -4.6004257403582984e-10 -4.6487015184015645e-10 0.0000000000000000e+00  -2.2108094324611736e-10 -2.6237175998709498e-10 0.0000000000000000e+00  -2.6079850614350082e-10 1.0343567962118924e-09 0.0000000000000000e+00  -5.1301566588993589e-10 8.8295476651869013e-10 0.0000000000000000e+00  -8.9023947623852498e-10 8.7547405451422779e-10 0.0000000000000000e+00  -1.2845327656926545e-09 8.3362162024106250e-10 0.0000000000000000e+00  -1.6582286688478553e-09 7.6136354239898849e-10 0.0000000000000000e+00  -1.9947426380118530e-09 6.6477248687851774e-10 0.0000000000000000e+00  -2.2826920519673696e-09 5.4866837263848499e-10 0.0000000000000000e+00  -2.5134374983160840e-09 4.1722305688015485e-10 0.0000000000000000e+00  -2.6804155059916447e-09 2.7446743908283553e-10 0.0000000000000000e+00  -2.7790360821002995e-09 1.2447295048976236e-10 0.0000000000000000e+00  -2.8066902009016877e-09 -2.8618808516065474e-11 0.0000000000000000e+00  -2.7627673143141019e-09 -1.8062890978383819e-10 0.0000000000000000e+00  -2.6486610496041413e-09 -3.2739471498594750e-10 0.0000000000000000e+00  -2.4677599996430498e-09 -4.6481905672738419e-10 0.0000000000000000e+00  -2.2254352339071014e-09 -5.8888760916560764e-10 0.0000000000000000e+00  -1.9290662091161564e-09 -6.9560337404712040e-10 0.0000000000000000e+00  -1.5882415608958106e-09 -7.8071613552107986e-10 0.0000000000000000e+00  -1.2156333211198119e-09 -8.3893136152535556e-10 0.0000000000000000e+00  -8.3040133103213454e-10 -8.6175907184146775e-10 0.0000000000000000e+00  -4.7501348913280735e-10 -8.3506735982816855e-10 0.0000000000000000e+00  -2.3825299169271062e-10 -6.0214115220841528e-10 0.0000000000000000e+00  -2.6753060541171009e-10 1.4816668412458447e-09 0.0000000000000000e+00  -5.1027182860500748e-10 1.3087885925945098e-09 0.0000000000000000e+00  -8.8252118155954477e-10 1.2737237387263850e-09 0.0000000000000000e+00  -1.2666347505569313e-09 1.2066524124042496e-09 0.0000000000000000e+00  -1.6263295690522858e-09 1.1014569012152767e-09 0.0000000000000000e+00  -1.9479958704042898e-09 9.6254351221756140e-10 0.0000000000000000e+00  -2.2222008462664573e-09 7.9556183606833881e-10 0.0000000000000000e+00  -2.4412460298728610e-09 6.0623603049410296e-10 0.0000000000000000e+00  -2.5991043937209361e-09 4.0036216127813173e-10 0.0000000000000000e+00  -2.6915308684892448e-09 1.8386161208695317e-10 0.0000000000000000e+00  -2.7161413476139559e-09 -3.7228903366785251e-11 0.0000000000000000e+00  -2.6724558939987063e-09 -2.5681313759523313e-10 0.0000000000000000e+00  -2.5619121643298761e-09 -4.6880900024253964e-10 0.0000000000000000e+00  -2.3878538015873122e-09 -6.6721580876225496e-10 0.0000000000000000e+00  -2.1554986023726611e-09 -8.4614836488431856e-10 0.0000000000000000e+00  -1.8719003984916484e-09 -9.9980059611680412e-10 0.0000000000000000e+00  -1.5459707562358558e-09 -1.1222906990617744e-09 0.0000000000000000e+00  -1.1889063074641050e-09 -1.2073843385706713e-09 0.0000000000000000e+00  -8.1678208068468708e-10 -1.2482449575823434e-09 0.0000000000000000e+00  -4.6869135657245256e-10 -1.2383421335828719e-09 0.0000000000000000e+00  -2.4309662826501488e-10 -1.0161686873432578e-09 0.0000000000000000e+00  -2.8231373049975011e-10 1.9200063382841980e-09 0.0000000000000000e+00  -5.1033392781656265e-10 1.7362197896153407e-09 0.0000000000000000e+00  -8.7863117357955920e-10 1.6761906547825236e-09 0.0000000000000000e+00  -1.2595137027994797e-09 1.5799599322398075e-09 0.0000000000000000e+00  -1.6143450845765003e-09 1.4392375515118778e-09 0.0000000000000000e+00  -1.9297339643246094e-09 1.2570667259028102e-09 0.0000000000000000e+00  -2.1972318392909699e-09 1.0392979438061560e-09 0.0000000000000000e+00  -2.4100173484867772e-09 7.9275312985868463e-10 0.0000000000000000e+00  -2.5626577752466732e-09 5.2474712769101880e-10 0.0000000000000000e+00  -2.6512935763603566e-09 2.4291750799731948e-10 0.0000000000000000e+00  -2.6737846803609684e-09 -4.4888047894902222e-11 0.0000000000000000e+00  -2.6297862248782567e-09 -3.3072235557064395e-10 0.0000000000000000e+00  -2.5207719381475378e-09 -6.0665122829041068e-10 0.0000000000000000e+00  -2.3500148684009546e-09 -8.6485915574977813e-10 0.0000000000000000e+00  -2.1225257240945334e-09 -1.0977373912007504e-09 0.0000000000000000e+00  -1.8449507988519874e-09 -1.2979501604138729e-09 0.0000000000000000e+00  -1.5254927112374197e-09 -1.4585074663280022e-09 0.0000000000000000e+00  -1.1742958523068106e-09 -1.5729762261115762e-09 0.0000000000000000e+00  -8.0661008705567621e-10 -1.6359340168204899e-09 0.0000000000000000e+00  -4.6376590981018709e-10 -1.6434392154172719e-09 0.0000000000000000e+00  -2.5503152702155008e-10 -1.4342780488137812e-09 0.0000000000000000e+00  -3.0367615954599229e-10 2.3547072020304045e-09 0.0000000000000000e+00  -5.1610895501368786e-10 2.1619576131944819e-09 0.0000000000000000e+00  -8.8231172487393929e-10 2.0802174636159675e-09 0.0000000000000000e+00  -1.2638544530659525e-09 1.9540115902522022e-09 0.0000000000000000e+00  -1.6191357030278009e-09 1.7761208143091628e-09 0.0000000000000000e+00  -1.9339175160758911e-09 1.5495426777776432e-09 0.0000000000000000e+00  -2.1998806691561736e-09 1.2805255891366713e-09 0.0000000000000000e+00  -2.4106403902978025e-09 9.7685252034078564e-10 0.0000000000000000e+00  -2.5611919502179076e-09 6.4719225952594719e-10 0.0000000000000000e+00  -2.6480056456821355e-09 3.0076585744137620e-10 0.0000000000000000e+00  -2.6691645523196958e-09 -5.2873915304387362e-11 0.0000000000000000e+00  -2.6244473443217934e-09 -4.0402304281533870e-10 0.0000000000000000e+00  -2.5153543832504960e-09 -7.4299187057014550e-10 0.0000000000000000e+00  -2.3450828298175963e-09 -1.0602645826353378e-09 0.0000000000000000e+00  -2.1184508024417926e-09 -1.3466595544590118e-09 0.0000000000000000e+00  -1.8417805289257266e-09 -1.5935089664417372e-09 0.0000000000000000e+00  -1.5228460193169881e-09 -1.7929081295342594e-09 0.0000000000000000e+00  -1.1714772298497493e-09 -1.9381362524204948e-09 0.0000000000000000e+00  -8.0353356515900208e-10 -2.0241099264002819e-09 0.0000000000000000e+00  -4.6405688379093918e-10 -2.0471950917500933e-09 0.0000000000000000e+00  -2.7323914529530570e-10 -1.8462806490155760e-09 0.0000000000000000e+00  -3.3109652239351662e-10 2.7906666094043818e-09 0.0000000000000000e+00  -5.2750967318521286e-10 2.5892117000287434e-09 0.0000000000000000e+00  -8.9373950288275711e-10 2.4874479215463215e-09 0.0000000000000000e+00  -1.2787403853511376e-09 2.3314956024142125e-09 0.0000000000000000e+00  -1.6377567178008421e-09 2.1155053535016231e-09 0.0000000000000000e+00  -1.9554586284238136e-09 1.8433730868401898e-09 0.0000000000000000e+00  -2.2232531121958483e-09 1.5221793810013093e-09 0.0000000000000000e+00  -2.4348541502194235e-09 1.1607745812816475e-09 0.0000000000000000e+00  -2.5854851276642545e-09 7.6915151666739211e-10 0.0000000000000000e+00  -2.6718459860130653e-09 3.5804153421089068e-10 0.0000000000000000e+00  -2.6921961951366217e-09 -6.1381517586878546e-11 0.0000000000000000e+00  -2.6464165843127457e-09 -4.7774377152588342e-10 0.0000000000000000e+00  -2.5360282939927276e-09 -8.7969003050538587e-10 0.0000000000000000e+00  -2.3641674646032803e-09 -1.2560979992128072e-09 0.0000000000000000e+00  -2.1355171037296503e-09 -1.5963061147830413e-09 0.0000000000000000e+00  -1.8562197290532329e-09 -1.8903798946627720e-09 0.0000000000000000e+00  -1.5339179640825698e-09 -2.1294554516988011e-09 0.0000000000000000e+00  -1.1786212892911488e-09 -2.3062009626542206e-09 0.0000000000000000e+00  -8.0737392356860529e-10 -2.4151266613606924e-09 0.0000000000000000e+00  -4.6937198414778720e-10 -2.4520959678045244e-09 0.0000000000000000e+00  -2.9695940899103149e-10 -2.2547479163839094e-09 0.0000000000000000e+00  -3.6437917647684230e-10 3.2316030711425797e-09 0.0000000000000000e+00  -5.4356781776609735e-10 3.0212832079822465e-09 0.0000000000000000e+00  -9.1134467493209304e-10 2.9002492071326104e-09 0.0000000000000000e+00  -1.3016757259376463e-09 2.7146725050535665e-09 0.0000000000000000e+00  -1.6663378752874595e-09 2.4598982941043943e-09 0.0000000000000000e+00  -1.9888890675946551e-09 2.1411055591653730e-09 0.0000000000000000e+00  -2.2603502493550188e-09 1.7665637917069195e-09 0.0000000000000000e+00  -2.4743783077937546e-09 1.3463787215528837e-09 0.0000000000000000e+00  -2.6262983378416570e-09 8.9192432027341108e-10 0.0000000000000000e+00  -2.7129617672975115e-09 4.1542585342448803e-10 0.0000000000000000e+00  -2.7327622164040750e-09 -7.0374945503843870e-11 0.0000000000000000e+00  -2.6856617346970550e-09 -5.5250360166232833e-10 0.0000000000000000e+00  -2.5731967941964636e-09 -1.0180112996454033e-09 0.0000000000000000e+00  -2.3984581859070653e-09 -1.4542314972405318e-09 0.0000000000000000e+00  -2.1660472253029656e-09 -1.8490574284343487e-09 0.0000000000000000e+00  -1.8820409654798039e-09 -2.1912634075420620e-09 0.0000000000000000e+00  -1.5541395129582934e-09 -2.4708909984170272e-09 0.0000000000000000e+00  -1.1927668763491889e-09 -2.6797018690194134e-09 0.0000000000000000e+00  -8.1635735402052951e-10 -2.8113910576006591e-09 0.0000000000000000e+00  -4.7862237885736589e-10 -2.8610598418864914e-09 0.0000000000000000e+00  -3.2596374081492685e-10 -2.6638354367589535e-09 0.0000000000000000e+00  -4.0350475990522982e-10 3.6797192718667817e-09 0.0000000000000000e+00  -5.6293787444010684e-10 3.4604611229100932e-09 0.0000000000000000e+00  -9.3264333549632746e-10 3.3202972052284839e-09 0.0000000000000000e+00  -1.3290156781032900e-09 3.1048685766364931e-09 0.0000000000000000e+00  -1.6999308493943388e-09 2.8105590208743010e-09 0.0000000000000000e+00  -2.0278485245109838e-09 2.4439770549361151e-09 0.0000000000000000e+00  -2.3034307775344016e-09 2.0148137214168223e-09 0.0000000000000000e+00  -2.5202640382418362e-09 1.5346037822286170e-09 0.0000000000000000e+00  -2.6737482239536869e-09 1.0161872195855608e-09 0.0000000000000000e+00  -2.7608650318154834e-09 4.7329489328723788e-10 0.0000000000000000e+00  -2.7801282098633672e-09 -7.9799349996114072e-11 0.0000000000000000e+00  -2.7315695637161759e-09 -6.2857940020927259e-10 0.0000000000000000e+00  -2.6167306993254253e-09 -1.1585632408186440e-09 0.0000000000000000e+00  -2.4386538457258035e-09 -1.6555810829423437e-09 0.0000000000000000e+00  -2.2018736996432046e-09 -2.1060806516164574e-09 0.0000000000000000e+00  -1.9124454499833697e-09 -2.4974799426395781e-09 0.0000000000000000e+00  -1.5781960735619783e-09 -2.8185770044551963e-09 0.0000000000000000e+00  -1.2100365247347447e-09 -3.0600023711777056e-09 0.0000000000000000e+00  -8.2787420908584455e-10 -3.2144108987283092e-09 0.0000000000000000e+00  -4.9036970509607306e-10 -3.2760661819115563e-09 0.0000000000000000e+00  -3.6023059691173601e-10 -3.0767241264205117e-09 0.0000000000000000e+00  -4.4856328199091680e-10 4.1354889668402622e-09 0.0000000000000000e+00  -5.8400444650873753e-10 3.9075999236480432e-09 0.0000000000000000e+00  -9.5449278626223375e-10 3.7480044396735612e-09 0.0000000000000000e+00  -1.3561390454906279e-09 3.5021492392319006e-09 0.0000000000000000e+00  -1.7324350156933408e-09 3.1673853253790931e-09 0.0000000000000000e+00  -2.0647571131964488e-09 2.7518445395668149e-09 0.0000000000000000e+00  -2.3435096206594357e-09 2.2667990901166390e-09 0.0000000000000000e+00  -2.5622985926737938e-09 1.7253515958606765e-09 0.0000000000000000e+00  -2.7166667167225319e-09 1.1418837502670091e-09 0.0000000000000000e+00  -2.8037738452973853e-09 5.3164046310899371e-10 0.0000000000000000e+00  -2.8222804359340969e-09 -8.9614837990650897e-11 0.0000000000000000e+00  -2.7722906420167794e-09 -7.0589321216377830e-10 0.0000000000000000e+00  -2.6553306729293729e-09 -1.3012473402995570e-09 0.0000000000000000e+00  -2.4743572321119455e-09 -1.8600448273403376e-09 0.0000000000000000e+00  -2.2337957850697483e-09 -2.3672784599184870e-09 0.0000000000000000e+00  -1.9396409251032913e-09 -2.8089351151906849e-09 0.0000000000000000e+00  -1.5998140414817382e-09 -3.1724289932352186e-09 0.0000000000000000e+00  -1.2256881742930873e-09 -3.4470811529230731e-09 0.0000000000000000e+00  -8.3868715215418040e-10 -3.6243562782545981e-09 0.0000000000000000e+00  -5.0291233076848761e-10 -3.6976547393321993e-09 0.0000000000000000e+00  -3.9983198664904525e-10 -3.4950304437304671e-09 0.0000000000000000e+00  -4.9971961683513457e-10 4.5974050868549468e-09 0.0000000000000000e+00  -6.0486514190594248e-10 4.3617920255852989e-09 0.0000000000000000e+00  -9.7309841152329469e-10 4.1821305035476487e-09 0.0000000000000000e+00  -1.3774124563335051e-09 3.9049846600713981e-09 0.0000000000000000e+00  -1.7564327040360054e-09 3.5286996365261459e-09 0.0000000000000000e+00  -2.0904831823706605e-09 3.0630456057862412e-09 0.0000000000000000e+00  -2.3698727250414983e-09 2.5210165753924250e-09 0.0000000000000000e+00  -2.5884061662245101e-09 1.9173961283263671e-09 0.0000000000000000e+00  -2.7419283026140431e-09 1.2681576917395087e-09 0.0000000000000000e+00  -2.8278993424293671e-09 5.9003924422794706e-10 0.0000000000000000e+00  -2.8451997829698480e-09 -9.9784016448850672e-11 0.0000000000000000e+00  -2.7940239173397800e-09 -7.8395724326533730e-10 0.0000000000000000e+00  -2.6758455175458340e-09 -1.4451704356380694e-09 0.0000000000000000e+00  -2.4934528536234514e-09 -2.0663945243288808e-09 0.0000000000000000e+00  -2.2510486654285864e-09 -2.6311714660668115e-09 0.0000000000000000e+00  -1.9544402314955646e-09 -3.1239876845646594e-09 0.0000000000000000e+00  -1.6115197414607446e-09 -3.5307390465020780e-09 0.0000000000000000e+00  -1.2340259715747190e-09 -3.8392707962931753e-09 0.0000000000000000e+00  -8.4491901697660512e-10 -4.0397187439332297e-09 0.0000000000000000e+00  -5.1425825757672150e-10 -4.1245948738711963e-09 0.0000000000000000e+00  -4.4489511530420838e-10 -3.9185575808490613e-09 0.0000000000000000e+00  -5.5719574607377532e-10 5.0616464137915905e-09 0.0000000000000000e+00  -6.2326508835119257e-10 4.8200174257469876e-09 0.0000000000000000e+00  -9.8390634695322088e-10 4.6193900041233433e-09 0.0000000000000000e+00  -1.3860198912775642e-09 4.3098655372480525e-09 0.0000000000000000e+00  -1.7629155013060220e-09 3.8909183191811706e-09 0.0000000000000000e+00  -2.0939372817659510e-09 3.3741300338881771e-09 0.0000000000000000e+00  -2.3695359233874404e-09 2.7743750365212220e-09 0.0000000000000000e+00  -2.5839911488988570e-09 2.1082197089656410e-09 0.0000000000000000e+00  -2.7337085988524929e-09 1.3932452878078614e-09 0.0000000000000000e+00  -2.8166538336344477e-09 6.4760876246873001e-10 0.0000000000000000e+00  -2.8320532393172033e-09 -1.1024787484022092e-10 0.0000000000000000e+00  -2.7802240122264968e-09 -8.6178383438104755e-10 0.0000000000000000e+00  -2.6625264304069265e-09 -1.5884977048358911e-09 0.0000000000000000e+00  -2.4814381124659207e-09 -2.2720842328746461e-09 0.0000000000000000e+00  -2.2407394732535968e-09 -2.8946727688358761e-09 0.0000000000000000e+00  -1.9458241355382494e-09 -3.4391923811203841e-09 0.0000000000000000e+00  -1.6043360734197995e-09 -3.8898801675415009e-09 0.0000000000000000e+00  -1.2282123897903403e-09 -4.2329193705062554e-09 0.0000000000000000e+00  -8.4193989438359632e-10 -4.4569485004842968e-09 0.0000000000000000e+00  -5.2205537701806637e-10 -4.5535436342530279e-09 0.0000000000000000e+00  -4.9558579569615544e-10 -4.3450342767788858e-09 0.0000000000000000e+00  -6.2126519127654342e-10 5.5216443904472995e-09 0.0000000000000000e+00  -6.3650735667900253e-10 5.2767224768619425e-09 0.0000000000000000e+00  -9.8143273108672585e-10 5.0539974445006999e-09 0.0000000000000000e+00  -1.3736995755905546e-09 4.7108371101925726e-09 0.0000000000000000e+00  -1.7409082095213381e-09 4.2481067833433679e-09 0.0000000000000000e+00  -2.0615655407209002e-09 3.6794608827144253e-09 0.0000000000000000e+00  -2.3266048623440458e-09 3.0218583948840658e-09 0.0000000000000000e+00  -2.5311790625443884e-09 2.2937510209934756e-09 0.0000000000000000e+00  -2.6726340935972632e-09 1.5143013399933327e-09 0.0000000000000000e+00  -2.7497448399214064e-09 7.0293207326149177e-10 0.0000000000000000e+00  -2.7622708701012822e-09 -1.2089785072356203e-10 0.0000000000000000e+00  -2.7106999063455545e-09 -9.3775752708465697e-10 0.0000000000000000e+00  -2.5961840793548496e-09 -1.7282357647660581e-09 0.0000000000000000e+00  -2.4206712327721730e-09 -2.4729607894217674e-09 0.0000000000000000e+00  -2.1872114581413109e-09 -3.1527435011474144e-09 0.0000000000000000e+00  -1.9004361446229709e-09 -3.7489153732372931e-09 0.0000000000000000e+00  -1.5674073432608016e-09 -4.2438928616296569e-09 0.0000000000000000e+00  -1.2000068833650845e-09 -4.6219595292113559e-09 0.0000000000000000e+00  -8.2419645649608852e-10 -4.8700229436301375e-09 0.0000000000000000e+00  -5.2349780582440268e-10 -4.9786345902062622e-09 0.0000000000000000e+00  -5.5209948018578088e-10 -4.7697695225861517e-09 0.0000000000000000e+00  -6.9226080786876009e-10 5.9675340749695267e-09 0.0000000000000000e+00  -6.4134725574333111e-10 5.7232993706152257e-09 0.0000000000000000e+00  -9.5904698379470585e-10 5.4771136047035605e-09 0.0000000000000000e+00  -1.3304044346916009e-09 5.0989229032861405e-09 0.0000000000000000e+00  -1.6769917683147095e-09 4.5914068766346981e-09 0.0000000000000000e+00  -1.976724563