<?xml version="1.0"?>
<VTKFile type="UnstructuredGrid"  version="0.1"  >
<UnstructuredGrid>
<Piece  NumberOfPoints="651" NumberOfCells="1200">
<Points>
<DataArray  type="Float64"  NumberOfComponents="3"  format="ascii">0 0 0  50000 0 0  100000 0 0  150000 0 0  200000 0 0  250000 0 0  300000 0 0  350000 0 0  400000 0 0  450000 0 0  500000 0 0  550000 0 0  600000 0 0  650000 0 0  700000 0 0  750000 0 0  800000 0 0  850000 0 0  900000 0 0  950000 0 0  1000000 0 0  0 50000 0  50000 50000 0  100000 50000 0  150000 50000 0  200000 50000 0  250000 50000 0  300000 50000 0  350000 50000 0  400000 50000 0  450000 50000 0  500000 50000 0  550000 50000 0  600000 50000 0  650000 50000 0  700000 50000 0  750000 50000 0  800000 50000 0  850000 50000 0  900000 50000 0  950000 50000 0  1000000 50000 0  0 100000 0  50000 100000 0  100000 100000 0  150000 100000 0  200000 100000 0  250000 100000 0  300000 100000 0  350000 100000 0  400000 100000 0  450000 100000 0  500000 100000 0  550000 100000 0  600000 100000 0  650000 100000 0  700000 100000 0  750000 100000 0  800000 100000 0  850000 100000 0  900000 100000 0  950000 100000 0  1000000 100000 0  0 150000 0  50000 150000 0  100000 150000 0  150000 150000 0  200000 150000 0  250000 150000 0  300000 150000 0  350000 150000 0  400000 150000 0  450000 150000 0  500000 150000 0  550000 150000 0  600000 150000 0  650000 150000 0  700000 150000 0  750000 150000 0  800000 150000 0  850000 150000 0  900000 150000 0  950000 150000 0  1000000 150000 0  0 200000 0  50000 200000 0  100000 200000 0  150000 200000 0  200000 200000 0  250000 200000 0  300000 200000 0  350000 200000 0  400000 200000 0  450000 200000 0  500000 200000 0  550000 200000 0  600000 200000 0  650000 200000 0  700000 200000 0  750000 200000 0  800000 200000 0  850000 200000 0  900000 200000 0  950000 200000 0  1000000 200000 0  0 250000 0  50000 250000 0  100000 250000 0  150000 250000 0  200000 250000 0  250000 250000 0  300000 250000 0  350000 250000 0  400000 250000 0  450000 250000 0  500000 250000 0  550000 250000 0  600000 250000 0  650000 250000 0  700000 250000 0  750000 250000 0  800000 250000 0  850000 250000 0  900000 250000 0  950000 250000 0  1000000 250000 0  0 300000 0  50000 300000 0  100000 300000 0  150000 300000 0  200000 300000 0  250000 300000 0  300000 300000 0  350000 300000 0  400000 300000 0  450000 300000 0  500000 300000 0  550000 300000 0  600000 300000 0  650000 300000 0  700000 300000 0  750000 300000 0  800000 300000 0  850000 300000 0  900000 300000 0  950000 300000 0  1000000 300000 0  0 350000 0  50000 350000 0  100000 350000 0  150000 350000 0  200000 350000 0  250000 350000 0  300000 350000 0  350000 350000 0  400000 350000 0  450000 350000 0  500000 350000 0  550000 350000 0  600000 350000 0  650000 350000 0  700000 350000 0  750000 350000 0  800000 350000 0  850000 350000 0  900000 350000 0  950000 350000 0  1000000 350000 0  0 400000 0  50000 400000 0  100000 400000 0  150000 400000 0  200000 400000 0  250000 400000 0  300000 400000 0  350000 400000 0  400000 400000 0  450000 400000 0  500000 400000 0  550000 400000 0  600000 400000 0  650000 400000 0  700000 400000 0  750000 400000 0  800000 400000 0  850000 400000 0  900000 400000 0  950000 400000 0  1000000 400000 0  0 450000 0  50000 450000 0  100000 450000 0  150000 450000 0  200000 450000 0  250000 450000 0  300000 450000 0  350000 450000 0  400000 450000 0  450000 450000 0  500000 450000 0  550000 450000 0  600000 450000 0  650000 450000 0  700000 450000 0  750000 450000 0  800000 450000 0  850000 450000 0  900000 450000 0  950000 450000 0  1000000 450000 0  0 500000 0  50000 500000 0  100000 500000 0  150000 500000 0  200000 500000 0  250000 500000 0  300000 500000 0  350000 500000 0  400000 500000 0  450000 500000 0  500000 500000 0  550000 500000 0  600000 500000 0  650000 500000 0  700000 500000 0  750000 500000 0  800000 500000 0  850000 500000 0  900000 500000 0  950000 500000 0  1000000 500000 0  0 550000 0  50000 550000 0  100000 550000 0  150000 550000 0  200000 550000 0  250000 550000 0  300000 550000 0  350000 550000 0  400000 550000 0  450000 550000 0  500000 550000 0  550000 550000 0  600000 550000 0  650000 550000 0  700000 550000 0  750000 550000 0  800000 550000 0  850000 550000 0  900000 550000 0  950000 550000 0  1000000 550000 0  0 600000 0  50000 600000 0  100000 600000 0  150000 600000 0  200000 600000 0  250000 600000 0  300000 600000 0  350000 600000 0  400000 600000 0  450000 600000 0  500000 600000 0  550000 600000 0  600000 600000 0  650000 600000 0  700000 600000 0  750000 600000 0  800000 600000 0  850000 600000 0  900000 600000 0  950000 600000 0  1000000 600000 0  0 650000 0  50000 650000 0  100000 650000 0  150000 650000 0  200000 650000 0  250000 650000 0  300000 650000 0  350000 650000 0  400000 650000 0  450000 650000 0  500000 650000 0  550000 650000 0  600000 650000 0  650000 650000 0  700000 650000 0  750000 650000 0  800000 650000 0  850000 650000 0  900000 650000 0  950000 650000 0  1000000 650000 0  0 700000 0  50000 700000 0  100000 700000 0  150000 700000 0  200000 700000 0  250000 700000 0  300000 700000 0  350000 700000 0  400000 700000 0  450000 700000 0  500000 700000 0  550000 700000 0  600000 700000 0  650000 700000 0  700000 700000 0  750000 700000 0  800000 700000 0  850000 700000 0  900000 700000 0  950000 700000 0  1000000 700000 0  0 750000 0  50000 750000 0  100000 750000 0  150000 750000 0  200000 750000 0  250000 750000 0  300000 750000 0  350000 750000 0  400000 750000 0  450000 750000 0  500000 750000 0  550000 750000 0  600000 750000 0  650000 750000 0  700000 750000 0  750000 750000 0  800000 750000 0  850000 750000 0  900000 750000 0  950000 750000 0  1000000 750000 0  0 800000 0  50000 800000 0  100000 800000 0  150000 800000 0  200000 800000 0  250000 800000 0  300000 800000 0  350000 800000 0  400000 800000 0  450000 800000 0  500000 800000 0  550000 800000 0  600000 800000 0  650000 800000 0  700000 800000 0  750000 800000 0  800000 800000 0  850000 800000 0  900000 800000 0  950000 800000 0  1000000 800000 0  0 850000 0  50000 850000 0  100000 850000 0  150000 850000 0  200000 850000 0  250000 850000 0  300000 850000 0  350000 850000 0  400000 850000 0  450000 850000 0  500000 850000 0  550000 850000 0  600000 850000 0  650000 850000 0  700000 850000 0  750000 850000 0  800000 850000 0  850000 850000 0  900000 850000 0  950000 850000 0  1000000 850000 0  0 900000 0  50000 900000 0  100000 900000 0  150000 900000 0  200000 900000 0  250000 900000 0  300000 900000 0  350000 900000 0  400000 900000 0  450000 900000 0  500000 900000 0  550000 900000 0  600000 900000 0  650000 900000 0  700000 900000 0  750000 900000 0  800000 900000 0  850000 900000 0  900000 900000 0  950000 900000 0  1000000 900000 0  0 950000 0  50000 950000 0  100000 950000 0  150000 950000 0  200000 950000 0  250000 950000 0  300000 950000 0  350000 950000 0  400000 950000 0  450000 950000 0  500000 950000 0  550000 950000 0  600000 950000 0  650000 950000 0  700000 950000 0  750000 950000 0  800000 950000 0  850000 950000 0  900000 950000 0  950000 950000 0  1000000 950000 0  0 1000000 0  50000 1000000 0  100000 1000000 0  150000 1000000 0  200000 1000000 0  250000 1000000 0  300000 1000000 0  350000 1000000 0  400000 1000000 0  450000 1000000 0  500000 1000000 0  550000 1000000 0  600000 1000000 0  650000 1000000 0  700000 1000000 0  750000 1000000 0  800000 1000000 0  850000 1000000 0  900000 1000000 0  950000 1000000 0  1000000 1000000 0  0 1050000 0  50000 1050000 0  100000 1050000 0  150000 1050000 0  200000 1050000 0  250000 1050000 0  300000 1050000 0  350000 1050000 0  400000 1050000 0  450000 1050000 0  500000 1050000 0  550000 1050000 0  600000 1050000 0  650000 1050000 0  700000 1050000 0  750000 1050000 0  800000 1050000 0  850000 1050000 0  900000 1050000 0  950000 1050000 0  1000000 1050000 0  0 1100000 0  50000 1100000 0  100000 1100000 0  150000 1100000 0  200000 1100000 0  250000 1100000 0  300000 1100000 0  350000 1100000 0  400000 1100000 0  450000 1100000 0  500000 1100000 0  550000 1100000 0  600000 1100000 0  650000 1100000 0  700000 1100000 0  750000 1100000 0  800000 1100000 0  850000 1100000 0  900000 1100000 0  950000 1100000 0  1000000 1100000 0  0 1150000 0  50000 1150000 0  100000 1150000 0  150000 1150000 0  200000 1150000 0  250000 1150000 0  300000 1150000 0  350000 1150000 0  400000 1150000 0  450000 1150000 0  500000 1150000 0  550000 1150000 0  600000 1150000 0  650000 1150000 0  700000 1150000 0  750000 1150000 0  800000 1150000 0  850000 1150000 0  900000 1150000 0  950000 1150000 0  1000000 1150000 0  0 1200000 0  50000 1200000 0  100000 1200000 0  150000 1200000 0  200000 1200000 0  250000 1200000 0  300000 1200000 0  350000 1200000 0  400000 1200000 0  450000 1200000 0  500000 1200000 0  550000 1200000 0  600000 1200000 0  650000 1200000 0  700000 1200000 0  750000 1200000 0  800000 1200000 0  850000 1200000 0  900000 1200000 0  950000 1200000 0  1000000 1200000 0  0 1250000 0  50000 1250000 0  100000 1250000 0  150000 1250000 0  200000 1250000 0  250000 1250000 0  300000 1250000 0  350000 1250000 0  400000 1250000 0  450000 1250000 0  500000 1250000 0  550000 1250000 0  600000 1250000 0  650000 1250000 0  700000 1250000 0  750000 1250000 0  800000 1250000 0  850000 1250000 0  900000 1250000 0  950000 1250000 0  1000000 1250000 0  0 1300000 0  50000 1300000 0  100000 1300000 0  150000 1300000 0  200000 1300000 0  250000 1300000 0  300000 1300000 0  350000 1300000 0  400000 1300000 0  450000 1300000 0  500000 1300000 0  550000 1300000 0  600000 1300000 0  650000 1300000 0  700000 1300000 0  750000 1300000 0  800000 1300000 0  850000 1300000 0  900000 1300000 0  950000 1300000 0  1000000 1300000 0  0 1350000 0  50000 1350000 0  100000 1350000 0  150000 1350000 0  200000 1350000 0  250000 1350000 0  300000 1350000 0  350000 1350000 0  400000 1350000 0  450000 1350000 0  500000 1350000 0  550000 1350000 0  600000 1350000 0  650000 1350000 0  700000 135
[...]
<PointData  Vectors="f_15"> 
<DataArray  type="Float64"  Name="f_15"  NumberOfComponents="3" format="ascii">-3.3033719360886898e-10 2.6280464617408974e-10 0.0000000000000000e+00  -6.0350360547641743e-10 2.0964022525173573e-10 0.0000000000000000e+00  -1.0895384670792004e-09 1.8702739673834829e-10 0.0000000000000000e+00  -1.5593619010891626e-09 1.6755045953444022e-10 0.0000000000000000e+00  -1.9896088806744861e-09 1.4525065193508377e-10 0.0000000000000000e+00  -2.3677378335273355e-09 1.1939294815744572e-10 0.0000000000000000e+00  -2.6835562860331131e-09 9.0191110686334936e-11 0.0000000000000000e+00  -2.9288230182185884e-09 5.8191957580856592e-11 0.0000000000000000e+00  -3.0972380622172998e-09 2.4121951438111793e-11 0.0000000000000000e+00  -3.1845516840546931e-09 -1.1187338459971267e-11 0.0000000000000000e+00  -3.1886546753744001e-09 -4.6846666698072685e-11 0.0000000000000000e+00  -3.1096218695821986e-09 -8.1945755264319501e-11 0.0000000000000000e+00  -2.9497036727190815e-09 -1.1558584497794948e-10 0.0000000000000000e+00  -2.7132658571286318e-09 -1.4691167318906093e-10 0.0000000000000000e+00  -2.4066888306305181e-09 -1.7514724870250521e-10 0.0000000000000000e+00  -2.0382933614253766e-09 -1.9964949596193224e-10 0.0000000000000000e+00  -1.6186415889402796e-09 -2.2003176293766737e-10 0.0000000000000000e+00  -1.1628072307640807e-09 -2.3650237754866929e-10 0.0000000000000000e+00  -7.0106949759896846e-10 -2.4954466272684781e-10 0.0000000000000000e+00  -3.2425883373515074e-10 -2.4132003346656229e-10 0.0000000000000000e+00  -1.6542651570630425e-10 -1.5840955158992443e-10 0.0000000000000000e+00  -2.8251531287642377e-10 5.1476645682070807e-10 0.0000000000000000e+00  -4.9465725160629291e-10 4.7649100725203913e-10 0.0000000000000000e+00  -8.7305101163942384e-10 4.9615325387695489e-10 0.0000000000000000e+00  -1.3000818228793501e-09 4.7183352106490609e-10 0.0000000000000000e+00  -1.7078586265021663e-09 4.2880874426037918e-10 0.0000000000000000e+00  -2.0745992883041248e-09 3.7245750248250525e-10 0.0000000000000000e+00  -2.3886239713767293e-09 3.0551443552306380e-10 0.0000000000000000e+00  -2.6410454845958575e-09 2.3019983942278523e-10 0.0000000000000000e+00  -2.8250173513759060e-09 1.4868957737999409e-10 0.0000000000000000e+00  -2.9356965121861685e-09 6.3220763866870868e-11 0.0000000000000000e+00  -2.9702720964215540e-09 -2.3910625493115835e-11 0.0000000000000000e+00  -2.9279936799566361e-09 -1.1038545036804935e-10 0.0000000000000000e+00  -2.8101748823885236e-09 -1.9390674591817933e-10 0.0000000000000000e+00  -2.6201654250920750e-09 -2.7224510801411740e-10 0.0000000000000000e+00  -2.3633013258244980e-09 -3.4327625092352138e-10 0.0000000000000000e+00  -2.0468792389529426e-09 -4.0499643779977346e-10 0.0000000000000000e+00  -1.6803388214614692e-09 -4.5546376237433979e-10 0.0000000000000000e+00  -1.2764508518456607e-09 -4.9235416201882970e-10 0.0000000000000000e+00  -8.5689679003672349e-10 -5.1020869197852327e-10 0.0000000000000000e+00  -4.7532605742044106e-10 -4.8826154017960713e-10 0.0000000000000000e+00  -2.5586735759253399e-10 -3.0550382712696054e-10 0.0000000000000000e+00  -2.7763238176006189e-10 9.6129249005430381e-10 0.0000000000000000e+00  -5.0398158163295985e-10 8.5638204823588724e-10 0.0000000000000000e+00  -8.6223126890979095e-10 8.7461610755949497e-10 0.0000000000000000e+00  -1.2515943097675866e-09 8.3816492365706974e-10 0.0000000000000000e+00  -1.6266926064112239e-09 7.6732181602037352e-10 0.0000000000000000e+00  -1.9672567416874725e-09 6.7110902664835928e-10 0.0000000000000000e+00  -2.2602677638791123e-09 5.5505075626351954e-10 0.0000000000000000e+00  -2.4965218709184379e-09 4.2350811075958902e-10 0.0000000000000000e+00  -2.6692069264903999e-09 2.8055403447805298e-10 0.0000000000000000e+00  -2.7735686335992385e-09 1.3026024613697878e-10 0.0000000000000000e+00  -2.8068577490236651e-09 -2.3246430384444272e-11 0.0000000000000000e+00  -2.7683238842040054e-09 -1.7581453127530910e-10 0.0000000000000000e+00  -2.6592051493007781e-09 -3.2332732102794134e-10 0.0000000000000000e+00  -2.4827018355122330e-09 -4.6176383187712827e-10 0.0000000000000000e+00  -2.2439410233015074e-09 -5.8723840662620850e-10 0.0000000000000000e+00  -1.9499725090740741e-09 -6.9597805705761687e-10 0.0000000000000000e+00  -1.6099448121091737e-09 -7.8413240166543500e-10 0.0000000000000000e+00  -1.2360120000490876e-09 -8.4711925983368415e-10 0.0000000000000000e+00  -8.4705315732010449e-10 -8.7772221789569482e-10 0.0000000000000000e+00  -4.8649900052261180e-10 -8.6172329930809301e-10 0.0000000000000000e+00  -2.6950430648496580e-10 -6.5085310907876149e-10 0.0000000000000000e+00  -2.8679302046214282e-10 1.4007248302104969e-09 0.0000000000000000e+00  -5.0369618051158574e-10 1.2675769622202154e-09 0.0000000000000000e+00  -8.5630056734814156e-10 1.2657169408896949e-09 0.0000000000000000e+00  -1.2309955085588169e-09 1.2110169299535610e-09 0.0000000000000000e+00  -1.5875736874236447e-09 1.1110355638901326e-09 0.0000000000000000e+00  -1.9103279178587224e-09 9.7455239270931802e-10 0.0000000000000000e+00  -2.1881155216883819e-09 8.0877011257437545e-10 0.0000000000000000e+00  -2.4122049391686087e-09 6.1999429503668096e-10 0.0000000000000000e+00  -2.5759595574586654e-09 4.1424509149874021e-10 0.0000000000000000e+00  -2.6747350112851427e-09 1.9752508520083319e-10 0.0000000000000000e+00  -2.7058434431205995e-09 -2.4112616244294972e-11 0.0000000000000000e+00  -2.6685403768032174e-09 -2.4459599545306446e-10 0.0000000000000000e+00  -2.5640056454757154e-09 -4.5790715337387894e-10 0.0000000000000000e+00  -2.3953072387115737e-09 -6.5816242940036157e-10 0.0000000000000000e+00  -2.1673475191827651e-09 -8.3967218827693128e-10 0.0000000000000000e+00  -1.8868085108282256e-09 -9.9694632435999260e-10 0.0000000000000000e+00  -1.5621792968963429e-09 -1.1245976011036191e-09 0.0000000000000000e+00  -1.2042703226089521e-09 -1.2171100769167255e-09 0.0000000000000000e+00  -8.2928245934559597e-10 -1.2684429481786386e-09 0.0000000000000000e+00  -4.7758199498251828e-10 -1.2698866412652060e-09 0.0000000000000000e+00  -2.7117075382135651e-10 -1.0707387024614829e-09 0.0000000000000000e+00  -3.0330416400818033e-10 1.8308139462121824e-09 0.0000000000000000e+00  -5.0525144112170726e-10 1.6808260259750462e-09 0.0000000000000000e+00  -8.5471241597793453e-10 1.6568041380974756e-09 0.0000000000000000e+00  -1.2249660089528298e-09 1.5785258775276202e-09 0.0000000000000000e+00  -1.5740739612396430e-09 1.4476874469878609e-09 0.0000000000000000e+00  -1.8880028536576576e-09 1.2711605408518377e-09 0.0000000000000000e+00  -2.1572165301271784e-09 1.0567081187960418e-09 0.0000000000000000e+00  -2.3739071037036429e-09 8.1207734616040093e-10 0.0000000000000000e+00  -2.5318904853513661e-09 5.4502739700434910e-10 0.0000000000000000e+00  -2.6267433698397448e-09 2.6340467347069807e-10 0.0000000000000000e+00  -2.6558820674006210e-09 -2.4858139541409677e-11 0.0000000000000000e+00  -2.6185867644780963e-09 -3.1180749875192297e-10 0.0000000000000000e+00  -2.5159892976591607e-09 -5.8957001115817384e-10 0.0000000000000000e+00  -2.3510285611474055e-09 -8.5046538228924898e-10 0.0000000000000000e+00  -2.1283716872124084e-09 -1.0871138267077718e-09 0.0000000000000000e+00  -1.8543073190052004e-09 -1.2925282014921045e-09 0.0000000000000000e+00  -1.5366899016161603e-09 -1.4602047203137344e-09 0.0000000000000000e+00  -1.1854267020814752e-09 -1.5842886193715168e-09 0.0000000000000000e+00  -8.1605697384714736e-10 -1.6597283584197680e-09 0.0000000000000000e+00  -4.7068088648405692e-10 -1.6795350510691707e-09 0.0000000000000000e+00  -2.8022828648913664e-10 -1.4946628242473371e-09 0.0000000000000000e+00  -3.2587814496011033e-10 2.2569139673127796e-09 0.0000000000000000e+00  -5.1182408820017484e-10 2.0940488891043649e-09 0.0000000000000000e+00  -8.6004405437196108e-10 2.0491679808374670e-09 0.0000000000000000e+00  -1.2310636659760841e-09 1.9446943897083722e-09 0.0000000000000000e+00  -1.5795802727883392e-09 1.7808957903079817e-09 0.0000000000000000e+00  -1.8913487224560955e-09 1.5635008410888334e-09 0.0000000000000000e+00  -2.1575310305939938e-09 1.3004681545693366e-09 0.0000000000000000e+00  -2.3710133312185349e-09 1.0006002357249270e-09 0.0000000000000000e+00  -2.5260833208434884e-09 6.7315258257111848e-10 0.0000000000000000e+00  -2.6185988441451317e-09 3.2767272841877475e-10 0.0000000000000000e+00  -2.6461254914521683e-09 -2.6119301343684778e-11 0.0000000000000000e+00  -2.6079981321715218e-09 -3.7846140657165439e-10 0.0000000000000000e+00  -2.5053240709334931e-09 -7.1969681502036259e-10 0.0000000000000000e+00  -2.3409394601164667e-09 -1.0404338970818725e-09 0.0000000000000000e+00  -2.1193219530350567e-09 -1.3317159277956798e-09 0.0000000000000000e+00  -1.8464742631348066e-09 -1.5852089292795074e-09 0.0000000000000000e+00  -1.5298945269506457e-09 -1.7934386989989390e-09 0.0000000000000000e+00  -1.1792572000468123e-09 -1.9501258153640197e-09 0.0000000000000000e+00  -8.1069864169692602e-10 -2.0503192184441521e-09 0.0000000000000000e+00  -4.6942553967754978e-10 -2.0868723526223095e-09 0.0000000000000000e+00  -2.9580869075759398e-10 -1.9122912194211285e-09 0.0000000000000000e+00  -3.5405890398249045e-10 2.6838912021697649e-09 0.0000000000000000e+00  -5.2357551082375063e-10 2.5098020843159426e-09 0.0000000000000000e+00  -8.7249313921072285e-10 2.4454770827668078e-09 0.0000000000000000e+00  -1.2475253912105872e-09 2.3138697757154839e-09 0.0000000000000000e+00  -1.5996327581636949e-09 2.1154310712344806e-09 0.0000000000000000e+00  -1.9136243012732754e-09 1.8558240491345569e-09 0.0000000000000000e+00  -2.1807127744387584e-09 1.5434101159382128e-09 0.0000000000000000e+00  -2.3941233942148306e-09 1.1879516457993692e-09 0.0000000000000000e+00  -2.5484869111995126e-09 8.0005681809464853e-10 0.0000000000000000e+00  -2.6399198334101964e-09 3.9085341633377307e-10 0.0000000000000000e+00  -2.6661520044648076e-09 -2.8245812206132635e-11 0.0000000000000000e+00  -2.6265977564972917e-09 -4.4574879979573526e-10 0.0000000000000000e+00  -2.5223697447352322e-09 -8.5028676089365192e-10 0.0000000000000000e+00  -2.3562448111875140e-09 -1.2308256867778743e-09 0.0000000000000000e+00  -2.1325891277132307e-09 -1.5768964626761629e-09 0.0000000000000000e+00  -1.8572704652074015e-09 -1.8788580995658506e-09 0.0000000000000000e+00  -1.5377103632881124e-09 -2.1282153804302270e-09 0.0000000000000000e+00  -1.1837948681726247e-09 -2.3179873798498805e-09 0.0000000000000000e+00  -8.1277404411756393e-10 -2.4427107002980108e-09 0.0000000000000000e+00  -4.7344102596920741e-10 -2.4944723773875244e-09 0.0000000000000000e+00  -3.1707707962456492e-10 -2.3260750213883011e-09 0.0000000000000000e+00  -3.8765786090667232e-10 3.1154143327084976e-09 0.0000000000000000e+00  -5.3967974110741330e-10 2.9309627627613207e-09 0.0000000000000000e+00  -8.9064605326134237e-10 2.8481762488682619e-09 0.0000000000000000e+00  -1.2716986481139203e-09 2.6890280808178979e-09 0.0000000000000000e+00  -1.6297836865603376e-09 2.4546737868368554e-09 0.0000000000000000e+00  -1.9485332972678980e-09 2.1513905719036964e-09 0.0000000000000000e+00  -2.2188964619903341e-09 1.7883007488687273e-09 0.0000000000000000e+00  -2.4341908536720004e-09 1.3762245470418034e-09 0.0000000000000000e+00  -2.5892556298440835e-09 9.2709901981561008e-10 0.0000000000000000e+00  -2.6804160968865002e-09 4.5356728621803955e-10 0.0000000000000000e+00  -2.7055614485493510e-09 -3.1338359710717345e-11 0.0000000000000000e+00  -2.6641997113486313e-09 -5.1446572757727514e-10 0.0000000000000000e+00  -2.5574731455529455e-09 -9.8279488485589730e-10 0.0000000000000000e+00  -2.3881379896612298e-09 -1.4236947545649192e-09 0.0000000000000000e+00  -2.1605168998506097e-09 -1.8252014870190138e-09 0.0000000000000000e+00  -1.8804601376963377e-09 -2.1763334936012049e-09 0.0000000000000000e+00  -1.5554916182229250e-09 -2.4674508140825233e-09 0.0000000000000000e+00  -1.1959268959819715e-09 -2.6906225198730162e-09 0.0000000000000000e+00  -8.2033454554044898e-10 -2.8395505777876135e-09 0.0000000000000000e+00  -4.8151873261985464e-10 -2.9054059229489963e-09 0.0000000000000000e+00  -3.4372565787486306e-10 -2.7400544843003622e-09 0.0000000000000000e+00  -4.2663400060520916e-10 3.5536350690710211e-09 0.0000000000000000e+00  -5.5887500681487409e-10 3.3595777620473411e-09 0.0000000000000000e+00  -9.1217194395544547e-10 3.2588550719808037e-09 0.0000000000000000e+00  -1.2999956507160321e-09 3.0717913863022442e-09 0.0000000000000000e+00  -1.6649332238015393e-09 2.8004114992361032e-09 0.0000000000000000e+00  -1.9893741547141431e-09 2.4519907557313890e-09 0.0000000000000000e+00  -2.2639043773974715e-09 2.0367268908886437e-09 0.0000000000000000e+00  -2.4818292912814242e-09 1.5666645371686830e-09 0.0000000000000000e+00  -2.6381285198767467e-09 1.0551208926098202e-09 0.0000000000000000e+00  -2.7293096967072817e-09 5.1623712358011468e-10 0.0000000000000000e+00  -2.7534205189259722e-09 -3.5385857088108965e-11 0.0000000000000000e+00  -2.7100712225678267e-09 -5.8499690935854660e-10 0.0000000000000000e+00  -2.6004438476064133e-09 -1.1179786949009848e-09 0.0000000000000000e+00  -2.4272881164316666e-09 -1.6201334080927798e-09 0.0000000000000000e+00  -2.1949104131886983e-09 -2.0779930789343675e-09 0.0000000000000000e+00  -1.9091933861609201e-09 -2.4791696488159060e-09 0.0000000000000000e+00  -1.5778352605523261e-09 -2.8127445061478881e-09 0.0000000000000000e+00  -1.2116601102649040e-09 -3.0696479624899403e-09 0.0000000000000000e+00  -8.3066324094996675e-10 -3.2425751153483882e-09 0.0000000000000000e+00  -4.9215219242603754e-10 -3.3217614512191347e-09 0.0000000000000000e+00  -3.7565932603243898e-10 -3.1572985889489603e-09 0.0000000000000000e+00  -4.7103750441609694e-10 3.9989833445019501e-09 0.0000000000000000e+00  -5.7959924459154741e-10 3.7963585370823495e-09 0.0000000000000000e+00  -9.3405918851956910e-10 3.6778561830050288e-09 0.0000000000000000e+00  -1.3279224594038901e-09 3.4623694725557058e-09 0.0000000000000000e+00  -1.6990244941031919e-09 3.1528775854335608e-09 0.0000000000000000e+00  -2.0285020635071121e-09 2.7578989532591283e-09 0.0000000000000000e+00  -2.3066054037819958e-09 2.2889568301895146e-09 0.0000000000000000e+00  -2.5266462281812661e-09 1.7594922828956993e-09 0.0000000000000000e+00  -2.6837656447464824e-09 1.1842813372643964e-09 0.0000000000000000e+00  -2.7746801803447422e-09 5.7896605992705088e-10 0.0000000000000000e+00  -2.7976196273690031e-09 -4.0329863961521888e-11 0.0000000000000000e+00  -2.7523064511113954e-09 -6.5732301420265119e-10 0.0000000000000000e+00  -2.6399538584131272e-09 -1.2558599399285035e-09 0.0000000000000000e+00  -2.4632807597448345e-09 -1.8202086040991144e-09 0.0000000000000000e+00  -2.2265462431810518e-09 -2.3353817446194854e-09 0.0000000000000000e+00  -1.9356373120106775e-09 -2.7875110890734383e-09 0.0000000000000000e+00  -1.5984066797514074e-09 -3.1642706532390470e-09 0.0000000000000000e+00  -1.2261824693665635e-09 -3.4552966311674330e-09 0.0000000000000000e+00  -8.4046466834357592e-10 -3.6521568242727971e-09 0.0000000000000000e+00  -5.0360110707675155e-10 -3.7441546913075063e-09 0.0000000000000000e+00  -4.1288268228820855e-10 -3.5793127436068424e-09 0.0000000000000000e+00  -5.2098101544685637e-10 4.4499204711805357e-09 0.0000000000000000e+00  -5.9998980998606448e-10 4.2403276239927976e-09 0.0000000000000000e+00  -9.5262934716534577e-10 4.1039205467653170e-09 0.0000000000000000e+00  -1.3499987344764895e-09 3.8593461367668981e-09 0.0000000000000000e+00  -1.7247791382782225e-09 3.5106450323804637e-09 0.0000000000000000e+00  -2.0568790487512333e-09 3.0677851681390860e-09 0.0000000000000000e+00  -2.3363301903608540e-09 2.5438319169489416e-09 0.0000000000000000e+00  -2.5565771215308494e-09 1.9537833208038832e-09 0.0000000000000000e+00  -2.7130395855480345e-09 1.3139496654155049e-09 0.0000000000000000e+00  -2.8027394037818917e-09 6.4146676651951706e-10 0.0000000000000000e+00  -2.8241509157054507e-09 -4.6086870553287788e-11 0.0000000000000000e+00  -2.7771264053834751e-09 -7.3099293401237325e-10 0.0000000000000000e+00  -2.6628794399204395e-09 -1.3956545906192353e-09 0.0000000000000000e+00  -2.4840248485134619e-09 -2.0228623759137125e-09 0.0000000000000000e+00  -2.2446725839623115e-09 -2.5961075322014299e-09 0.0000000000000000e+00  -1.9506014191168784e-09 -3.0999709987771569e-09 0.0000000000000000e+00  -1.6097138946733409e-09 -3.5205902649306454e-09 0.0000000000000000e+00  -1.2337730961918651e-09 -3.8461524484295297e-09 0.0000000000000000e+00  -8.4584045467031311e-10 -4.0669736359265128e-09 0.0000000000000000e+00  -5.1385405057124234e-10 -4.1714156250612142e-09 0.0000000000000000e+00  -4.5545852654491240e-10 -4.0057900219775103e-09 0.0000000000000000e+00  -5.7662619003825761e-10 4.9026105118585589e-09 0.0000000000000000e+00  -6.1782708490343728e-10 4.6884578565577794e-09 0.0000000000000000e+00  -9.6343953831070234e-10 4.5338059193635309e-09 0.0000000000000000e+00  -1.3595760153980367e-09 4.2593483369978545e-09 0.0000000000000000e+00  -1.7333822749037197e-09 3.8703621360817694e-09 0.0000000000000000e+00  -2.0636066882535980e-09 3.3784940610514068e-09 0.0000000000000000e+00  -2.3402671680697495e-09 2.7985704342356406e-09 0.0000000000000000e+00  -2.5571771872990917e-09 2.1472988496523491e-09 0.0000000000000000e+00  -2.7102588022767718e-09 1.4425781728762465e-09 0.0000000000000000e+00  -2.7970199309310917e-09 7.0299214905787316e-10 0.0000000000000000e+00  -2.8162926867178112e-09 -5.2549164388512585e-11 0.0000000000000000e+00  -2.7680888173139744e-09 -8.0505482417454314e-10 0.0000000000000000e+00  -2.6535648062589932e-09 -1.5356409567984930e-09 0.0000000000000000e+00  -2.4750973574655419e-09 -2.2257288120506736e-09 0.0000000000000000e+00  -2.2364595121486840e-09 -2.8573170270351030e-09 0.0000000000000000e+00  -1.9431114974177990e-09 -3.4133731386371328e-09 0.0000000000000000e+00  -1.6028086807667934e-09 -3.8783558146525261e-09 0.0000000000000000e+00  -1.2276116682946003e-09 -4.2388182739472128e-09 0.0000000000000000e+00  -8.4217025445721318e-10 -4.4836599264290862e-09 0.0000000000000000e+00  -5.2055475779043673e-10 -4.6002613339064844e-09 0.0000000000000000e+00  -5.0348783435462144e-10 -4.4343531891686327e-09 0.0000000000000000e+00  -6.3818172704385875e-10 5.3504921203334060e-09 0.0000000000000000e+00  -6.3044956112445581e-10 5.1352470254931294e-09 0.0000000000000000e+00  -9.6111878985007069e-10 4.9618378208754161e-09 0.0000000000000000e+00  -1.3485743539796743e-09 4.6566073447368306e-09 0.0000000000000000e+00  -1.7140910004493346e-09 4.2263475426854123e-09 0.0000000000000000e+00  -2.0353897173478918e-09 3.6846816047846759e-09 0.0000000000000000e+00  -2.3027856783784334e-09 3.0484513458667830e-09 0.0000000000000000e+00  -2.5108264080148121e-09 2.3362284623323132e-09 0.0000000000000000e+00  -2.6562873571249646e-09 1.5675207550191891e-09 0.0000000000000000e+00  -2.7374468911512186e-09 7.6224579739174302e-10 0.0000000000000000e+00  -2.7536719527966346e-09 -5.9573006313614231e-11 0.0000000000000000e+00  -2.7051790848443258e-09 -8.7794263715604505e-10 0.0000000000000000e+00  -2.5929766485321842e-09 -1.6729535914656019e-09 0.0000000000000000e+00  -2.4189920533519496e-09 -2.4248511671442714e-09 0.0000000000000000e+00  -2.1863652337266780e-09 -3.1142222255844419e-09 0.0000000000000000e+00  -1.8999056732397019e-09 -3.7223696771360191e-09 0.0000000000000000e+00  -1.5669104297396108e-09 -4.2319023259320160e-09 0.0000000000000000e+00  -1.1995141613636007e-09 -4.6274941029472497e-09 0.0000000000000000e+00  -8.2393814324662004e-10 -4.8963884470325592e-09 0.0000000000000000e+00  -5.2090703865376568e-10 -5.0248981742909049e-09 0.0000000000000000e+00  -5.5709812477364212e-10 -4.8602152519021359e-09 0.0000000000000000e+00  -7.0591386145901800e-10 5.7837346816104727e-09 0.0000000000000000e+00  -6.3465010541459608e-10 5.5721973071457414e-09 0.0000000000000000e+00  -9.3915597587900498e-10 5.3793621611649301e-09 0.0000000000000000e+00  -1.3071462102895871e-09 5.0423999990246836e-09 0.0000000000000000e+00  -1.6537538964911975e-09 4.5700430207887042e-09 0.0000000000000000e+00  -1.9558982