<?xml version="1.0"?>
<VTKFile type="UnstructuredGrid"  version="0.1"  >
<UnstructuredGrid>
<Piece  NumberOfPoints="651" NumberOfCells="1200">
<Points>
<DataArray  type="Float64"  NumberOfComponents="3"  format="ascii">0 0 0  50000 0 0  100000 0 0  150000 0 0  200000 0 0  250000 0 0  300000 0 0  350000 0 0  400000 0 0  450000 0 0  500000 0 0  550000 0 0  600000 0 0  650000 0 0  700000 0 0  750000 0 0  800000 0 0  850000 0 0  900000 0 0  950000 0 0  1000000 0 0  0 50000 0  50000 50000 0  100000 50000 0  150000 50000 0  200000 50000 0  250000 50000 0  300000 50000 0  350000 50000 0  400000 50000 0  450000 50000 0  500000 50000 0  550000 50000 0  600000 50000 0  650000 50000 0  700000 50000 0  750000 50000 0  800000 50000 0  850000 50000 0  900000 50000 0  950000 50000 0  1000000 50000 0  0 100000 0  50000 100000 0  100000 100000 0  150000 100000 0  200000 100000 0  250000 100000 0  300000 100000 0  350000 100000 0  400000 100000 0  450000 100000 0  500000 100000 0  550000 100000 0  600000 100000 0  650000 100000 0  700000 100000 0  750000 100000 0  800000 100000 0  850000 100000 0  900000 100000 0  950000 100000 0  1000000 100000 0  0 150000 0  50000 150000 0  100000 150000 0  150000 150000 0  200000 150000 0  250000 150000 0  300000 150000 0  350000 150000 0  400000 150000 0  450000 150000 0  500000 150000 0  550000 150000 0  600000 150000 0  650000 150000 0  700000 150000 0  750000 150000 0  800000 150000 0  850000 150000 0  900000 150000 0  950000 150000 0  1000000 150000 0  0 200000 0  50000 200000 0  100000 200000 0  150000 200000 0  200000 200000 0  250000 200000 0  300000 200000 0  350000 200000 0  400000 200000 0  450000 200000 0  500000 200000 0  550000 200000 0  600000 200000 0  650000 200000 0  700000 200000 0  750000 200000 0  800000 200000 0  850000 200000 0  900000 200000 0  950000 200000 0  1000000 200000 0  0 250000 0  50000 250000 0  100000 250000 0  150000 250000 0  200000 250000 0  250000 250000 0  300000 250000 0  350000 250000 0  400000 250000 0  450000 250000 0  500000 250000 0  550000 250000 0  600000 250000 0  650000 250000 0  700000 250000 0  750000 250000 0  800000 250000 0  850000 250000 0  900000 250000 0  950000 250000 0  1000000 250000 0  0 300000 0  50000 300000 0  100000 300000 0  150000 300000 0  200000 300000 0  250000 300000 0  300000 300000 0  350000 300000 0  400000 300000 0  450000 300000 0  500000 300000 0  550000 300000 0  600000 300000 0  650000 300000 0  700000 300000 0  750000 300000 0  800000 300000 0  850000 300000 0  900000 300000 0  950000 300000 0  1000000 300000 0  0 350000 0  50000 350000 0  100000 350000 0  150000 350000 0  200000 350000 0  250000 350000 0  300000 350000 0  350000 350000 0  400000 350000 0  450000 350000 0  500000 350000 0  550000 350000 0  600000 350000 0  650000 350000 0  700000 350000 0  750000 350000 0  800000 350000 0  850000 350000 0  900000 350000 0  950000 350000 0  1000000 350000 0  0 400000 0  50000 400000 0  100000 400000 0  150000 400000 0  200000 400000 0  250000 400000 0  300000 400000 0  350000 400000 0  400000 400000 0  450000 400000 0  500000 400000 0  550000 400000 0  600000 400000 0  650000 400000 0  700000 400000 0  750000 400000 0  800000 400000 0  850000 400000 0  900000 400000 0  950000 400000 0  1000000 400000 0  0 450000 0  50000 450000 0  100000 450000 0  150000 450000 0  200000 450000 0  250000 450000 0  300000 450000 0  350000 450000 0  400000 450000 0  450000 450000 0  500000 450000 0  550000 450000 0  600000 450000 0  650000 450000 0  700000 450000 0  750000 450000 0  800000 450000 0  850000 450000 0  900000 450000 0  950000 450000 0  1000000 450000 0  0 500000 0  50000 500000 0  100000 500000 0  150000 500000 0  200000 500000 0  250000 500000 0  300000 500000 0  350000 500000 0  400000 500000 0  450000 500000 0  500000 500000 0  550000 500000 0  600000 500000 0  650000 500000 0  700000 500000 0  750000 500000 0  800000 500000 0  850000 500000 0  900000 500000 0  950000 500000 0  1000000 500000 0  0 550000 0  50000 550000 0  100000 550000 0  150000 550000 0  200000 550000 0  250000 550000 0  300000 550000 0  350000 550000 0  400000 550000 0  450000 550000 0  500000 550000 0  550000 550000 0  600000 550000 0  650000 550000 0  700000 550000 0  750000 550000 0  800000 550000 0  850000 550000 0  900000 550000 0  950000 550000 0  1000000 550000 0  0 600000 0  50000 600000 0  100000 600000 0  150000 600000 0  200000 600000 0  250000 600000 0  300000 600000 0  350000 600000 0  400000 600000 0  450000 600000 0  500000 600000 0  550000 600000 0  600000 600000 0  650000 600000 0  700000 600000 0  750000 600000 0  800000 600000 0  850000 600000 0  900000 600000 0  950000 600000 0  1000000 600000 0  0 650000 0  50000 650000 0  100000 650000 0  150000 650000 0  200000 650000 0  250000 650000 0  300000 650000 0  350000 650000 0  400000 650000 0  450000 650000 0  500000 650000 0  550000 650000 0  600000 650000 0  650000 650000 0  700000 650000 0  750000 650000 0  800000 650000 0  850000 650000 0  900000 650000 0  950000 650000 0  1000000 650000 0  0 700000 0  50000 700000 0  100000 700000 0  150000 700000 0  200000 700000 0  250000 700000 0  300000 700000 0  350000 700000 0  400000 700000 0  450000 700000 0  500000 700000 0  550000 700000 0  600000 700000 0  650000 700000 0  700000 700000 0  750000 700000 0  800000 700000 0  850000 700000 0  900000 700000 0  950000 700000 0  1000000 700000 0  0 750000 0  50000 750000 0  100000 750000 0  150000 750000 0  200000 750000 0  250000 750000 0  300000 750000 0  350000 750000 0  400000 750000 0  450000 750000 0  500000 750000 0  550000 750000 0  600000 750000 0  650000 750000 0  700000 750000 0  750000 750000 0  800000 750000 0  850000 750000 0  900000 750000 0  950000 750000 0  1000000 750000 0  0 800000 0  50000 800000 0  100000 800000 0  150000 800000 0  200000 800000 0  250000 800000 0  300000 800000 0  350000 800000 0  400000 800000 0  450000 800000 0  500000 800000 0  550000 800000 0  600000 800000 0  650000 800000 0  700000 800000 0  750000 800000 0  800000 800000 0  850000 800000 0  900000 800000 0  950000 800000 0  1000000 800000 0  0 850000 0  50000 850000 0  100000 850000 0  150000 850000 0  200000 850000 0  250000 850000 0  300000 850000 0  350000 850000 0  400000 850000 0  450000 850000 0  500000 850000 0  550000 850000 0  600000 850000 0  650000 850000 0  700000 850000 0  750000 850000 0  800000 850000 0  850000 850000 0  900000 850000 0  950000 850000 0  1000000 850000 0  0 900000 0  50000 900000 0  100000 900000 0  150000 900000 0  200000 900000 0  250000 900000 0  300000 900000 0  350000 900000 0  400000 900000 0  450000 900000 0  500000 900000 0  550000 900000 0  600000 900000 0  650000 900000 0  700000 900000 0  750000 900000 0  800000 900000 0  850000 900000 0  900000 900000 0  950000 900000 0  1000000 900000 0  0 950000 0  50000 950000 0  100000 950000 0  150000 950000 0  200000 950000 0  250000 950000 0  300000 950000 0  350000 950000 0  400000 950000 0  450000 950000 0  500000 950000 0  550000 950000 0  600000 950000 0  650000 950000 0  700000 950000 0  750000 950000 0  800000 950000 0  850000 950000 0  900000 950000 0  950000 950000 0  1000000 950000 0  0 1000000 0  50000 1000000 0  100000 1000000 0  150000 1000000 0  200000 1000000 0  250000 1000000 0  300000 1000000 0  350000 1000000 0  400000 1000000 0  450000 1000000 0  500000 1000000 0  550000 1000000 0  600000 1000000 0  650000 1000000 0  700000 1000000 0  750000 1000000 0  800000 1000000 0  850000 1000000 0  900000 1000000 0  950000 1000000 0  1000000 1000000 0  0 1050000 0  50000 1050000 0  100000 1050000 0  150000 1050000 0  200000 1050000 0  250000 1050000 0  300000 1050000 0  350000 1050000 0  400000 1050000 0  450000 1050000 0  500000 1050000 0  550000 1050000 0  600000 1050000 0  650000 1050000 0  700000 1050000 0  750000 1050000 0  800000 1050000 0  850000 1050000 0  900000 1050000 0  950000 1050000 0  1000000 1050000 0  0 1100000 0  50000 1100000 0  100000 1100000 0  150000 1100000 0  200000 1100000 0  250000 1100000 0  300000 1100000 0  350000 1100000 0  400000 1100000 0  450000 1100000 0  500000 1100000 0  550000 1100000 0  600000 1100000 0  650000 1100000 0  700000 1100000 0  750000 1100000 0  800000 1100000 0  850000 1100000 0  900000 1100000 0  950000 1100000 0  1000000 1100000 0  0 1150000 0  50000 1150000 0  100000 1150000 0  150000 1150000 0  200000 1150000 0  250000 1150000 0  300000 1150000 0  350000 1150000 0  400000 1150000 0  450000 1150000 0  500000 1150000 0  550000 1150000 0  600000 1150000 0  650000 1150000 0  700000 1150000 0  750000 1150000 0  800000 1150000 0  850000 1150000 0  900000 1150000 0  950000 1150000 0  1000000 1150000 0  0 1200000 0  50000 1200000 0  100000 1200000 0  150000 1200000 0  200000 1200000 0  250000 1200000 0  300000 1200000 0  350000 1200000 0  400000 1200000 0  450000 1200000 0  500000 1200000 0  550000 1200000 0  600000 1200000 0  650000 1200000 0  700000 1200000 0  750000 1200000 0  800000 1200000 0  850000 1200000 0  900000 1200000 0  950000 1200000 0  1000000 1200000 0  0 1250000 0  50000 1250000 0  100000 1250000 0  150000 1250000 0  200000 1250000 0  250000 1250000 0  300000 1250000 0  350000 1250000 0  400000 1250000 0  450000 1250000 0  500000 1250000 0  550000 1250000 0  600000 1250000 0  650000 1250000 0  700000 1250000 0  750000 1250000 0  800000 1250000 0  850000 1250000 0  900000 1250000 0  950000 1250000 0  1000000 1250000 0  0 1300000 0  50000 1300000 0  100000 1300000 0  150000 1300000 0  200000 1300000 0  250000 1300000 0  300000 1300000 0  350000 1300000 0  400000 1300000 0  450000 1300000 0  500000 1300000 0  550000 1300000 0  600000 1300000 0  650000 1300000 0  700000 1300000 0  750000 1300000 0  800000 1300000 0  850000 1300000 0  900000 1300000 0  950000 1300000 0  1000000 1300000 0  0 1350000 0  50000 1350000 0  100000 1350000 0  150000 1350000 0  200000 1350000 0  250000 1350000 0  300000 1350000 0  350000 1350000 0  400000 1350000 0  450000 1350000 0  500000 1350000 0  550000 1350000 0  600000 1350000 0  650000 1350000 0  700000 135
[...]
<PointData  Vectors="f_15"> 
<DataArray  type="Float64"  Name="f_15"  NumberOfComponents="3" format="ascii">-3.2713769260469736e-10 2.8095605877209423e-10 0.0000000000000000e+00  -6.0125352130724546e-10 2.2925119572804912e-10 0.0000000000000000e+00  -1.0877243300002061e-09 2.0891557081509964e-10 0.0000000000000000e+00  -1.5575188482106539e-09 1.9105160840653037e-10 0.0000000000000000e+00  -1.9876040600750914e-09 1.6973183707879248e-10 0.0000000000000000e+00  -2.3654790699424942e-09 1.4443276486458376e-10 0.0000000000000000e+00  -2.6809793147882744e-09 1.1547478137952299e-10 0.0000000000000000e+00  -2.9258807057158202e-09 8.3460531814694261e-11 0.0000000000000000e+00  -3.0938945252471592e-09 4.9151295920192650e-11 0.0000000000000000e+00  -3.1807806017029966e-09 1.3401501271750355e-11 0.0000000000000000e+00  -3.1844394821278708e-09 -2.2884379322759387e-11 0.0000000000000000e+00  -3.1049569086392301e-09 -5.8785360182983242e-11 0.0000000000000000e+00  -2.9445958511482258e-09 -9.3393831711799472e-11 0.0000000000000000e+00  -2.7077362642273300e-09 -1.2584491395514516e-10 0.0000000000000000e+00  -2.4007734117857823e-09 -1.5534941201520796e-10 0.0000000000000000e+00  -2.0320410235331969e-09 -1.8124437451088026e-10 0.0000000000000000e+00  -1.6121068051133875e-09 -2.0311335406410895e-10 0.0000000000000000e+00  -1.1560317639795024e-09 -2.2112185451957169e-10 0.0000000000000000e+00  -6.9404159934876702e-10 -2.3569206323478917e-10 0.0000000000000000e+00  -3.1684703321999580e-10 -2.2884261014980267e-10 0.0000000000000000e+00  -1.5807237425972630e-10 -1.4617494574566646e-10 0.0000000000000000e+00  -2.7766337646779869e-10 5.3315508506425205e-10 0.0000000000000000e+00  -4.9592915904287205e-10 4.8526661146652641e-10 0.0000000000000000e+00  -8.7795402106122793e-10 5.0053738208543557e-10 0.0000000000000000e+00  -1.3049439545613277e-09 4.7588016096910310e-10 0.0000000000000000e+00  -1.7118474407690137e-09 4.3283611297590309e-10 0.0000000000000000e+00  -2.0775858900732069e-09 3.7644933108504563e-10 0.0000000000000000e+00  -2.3905557247146301e-09 3.0943557330824013e-10 0.0000000000000000e+00  -2.6418852970714398e-09 2.3402650695144765e-10 0.0000000000000000e+00  -2.8247476871150075e-09 1.5240646361510469e-10 0.0000000000000000e+00  -2.9343236824803711e-09 6.6818752904889603e-11 0.0000000000000000e+00  -2.9678293829101519e-09 -2.0435104223420476e-11 0.0000000000000000e+00  -2.9245447556349745e-09 -1.0702987601921326e-10 0.0000000000000000e+00  -2.8058183865001771e-09 -1.9066076102899308e-10 0.0000000000000000e+00  -2.6150414644599713e-09 -2.6908734079046402e-10 0.0000000000000000e+00  -2.3576010798008092e-09 -3.4016887391375348e-10 0.0000000000000000e+00  -2.0408597728998102e-09 -4.0187510449814779e-10 0.0000000000000000e+00  -1.6743439900035147e-09 -4.5221783501096727e-10 0.0000000000000000e+00  -1.2709128608845642e-09 -4.8879521391697490e-10 0.0000000000000000e+00  -8.5219777097798154e-10 -5.0601133425530785e-10 0.0000000000000000e+00  -4.7192508241651670e-10 -4.8255928754444960e-10 0.0000000000000000e+00  -2.4860265188090745e-10 -2.9313924999809950e-10 0.0000000000000000e+00  -2.7044788034047447e-10 9.8135027568029796e-10 0.0000000000000000e+00  -5.0621777847985666e-10 8.6588695038681763e-10 0.0000000000000000e+00  -8.6999133953516098e-10 8.7652663580769025e-10 0.0000000000000000e+00  -1.2610400808948574e-09 8.3815781243305943e-10 0.0000000000000000e+00  -1.6361708829438328e-09 7.6658434998283838e-10 0.0000000000000000e+00  -1.9759643358378999e-09 6.6996976448073117e-10 0.0000000000000000e+00  -2.2678274223744109e-09 5.5364011552333738e-10 0.0000000000000000e+00  -2.5027340434078145e-09 4.2190614480270598e-10 0.0000000000000000e+00  -2.6739646484157477e-09 2.7882753695454542e-10 0.0000000000000000e+00  -2.7768298695790849e-09 1.2847376245471396e-10 0.0000000000000000e+00  -2.8086344247689993e-09 -2.5025696752177348e-11 0.0000000000000000e+00  -2.7686774172345310e-09 -1.7751261747531811e-10 0.0000000000000000e+00  -2.6582460240191962e-09 -3.2485845839725621e-10 0.0000000000000000e+00  -2.4805928244838179e-09 -4.6302334254367511e-10 0.0000000000000000e+00  -2.2409044526047712e-09 -5.8809177110957150e-10 0.0000000000000000e+00  -1.9463018280515892e-09 -6.9624255644490594e-10 0.0000000000000000e+00  -1.6060173928486869e-09 -7.8354505991422630e-10 0.0000000000000000e+00  -1.2322902265343269e-09 -8.4528203725115050e-10 0.0000000000000000e+00  -8.4402098242133236e-10 -8.7399555129890043e-10 0.0000000000000000e+00  -4.8470498626244715e-10 -8.5584079802504617e-10 0.0000000000000000e+00  -2.6356383325427175e-10 -6.3774885697629016e-10 0.0000000000000000e+00  -2.7795710091116674e-10 1.4229734352569781e-09 0.0000000000000000e+00  -5.0542304272816242e-10 1.2811251672967060e-09 0.0000000000000000e+00  -8.6395306025458301e-10 1.2698567676983911e-09 0.0000000000000000e+00  -1.2413216204305965e-09 1.2113850276261292e-09 0.0000000000000000e+00  -1.5989128225908130e-09 1.1095569154283729e-09 0.0000000000000000e+00  -1.9215410563759544e-09 9.7202485520509544e-10 0.0000000000000000e+00  -2.1984968324500200e-09 8.0558751135038277e-10 0.0000000000000000e+00  -2.4213295873169710e-09 6.1639702180637719e-10 0.0000000000000000e+00  -2.5835804201696606e-09 4.1040934819098488e-10 0.0000000000000000e+00  -2.6807261440617123e-09 1.9359878892415710e-10 0.0000000000000000e+00  -2.7101703844376428e-09 -2.7992453793782762e-11 0.0000000000000000e+00  -2.6712442820962486e-09 -2.4829199069538789e-10 0.0000000000000000e+00  -2.5651954562323427e-09 -4.6127135186605625e-10 0.0000000000000000e+00  -2.3951574819541780e-09 -6.6102456839520266e-10 0.0000000000000000e+00  -2.1661004824653993e-09 -8.4182411496325356e-10 0.0000000000000000e+00  -1.8847790830773615e-09 -9.9811963496424014e-10 0.0000000000000000e+00  -1.5597577703445137e-09 -1.1244314205214376e-09 0.0000000000000000e+00  -1.2019074017270096e-09 -1.2151131958100005e-09 0.0000000000000000e+00  -8.2737023944772598e-10 -1.2640074605631436e-09 0.0000000000000000e+00  -4.7659125674230232e-10 -1.2634470321347561e-09 0.0000000000000000e+00  -2.6666060028888985e-10 -1.0570321945664341e-09 0.0000000000000000e+00  -2.9348248820616308e-10 1.8555151650296235e-09 0.0000000000000000e+00  -5.0665988374984957e-10 1.6984253928595400e-09 0.0000000000000000e+00  -8.6201929419971759e-10 1.6641104192214648e-09 0.0000000000000000e+00  -1.2351913222347860e-09 1.5805924204105350e-09 0.0000000000000000e+00  -1.5858470203711690e-09 1.4466387777716997e-09 0.0000000000000000e+00  -1.9001826745259696e-09 1.2681683452327043e-09 0.0000000000000000e+00  -2.1689562548116182e-09 1.0524679956302486e-09 0.0000000000000000e+00  -2.3846289620701715e-09 8.0704580518008854e-10 0.0000000000000000e+00  -2.5412255906890046e-09 5.3953682435099451e-10 0.0000000000000000e+00  -2.6344800180092197e-09 2.5772093773110755e-10 0.0000000000000000e+00  -2.6619295947044191e-09 -3.0503840817435318e-11 0.0000000000000000e+00  -2.6229520132424045e-09 -3.1719775952113532e-10 0.0000000000000000e+00  -2.5187620178893875e-09 -5.9448426128575078e-10 0.0000000000000000e+00  -2.3523730396472758e-09 -8.5466316980419496e-10 0.0000000000000000e+00  -2.1285223519249228e-09 -1.0903160663352105e-09 0.0000000000000000e+00  -1.8535653500238272e-09 -1.2943951504077882e-09 0.0000000000000000e+00  -1.5354148466901715e-09 -1.4603127303432120e-09 0.0000000000000000e+00  -1.1840065612986679e-09 -1.5821242418639400e-09 0.0000000000000000e+00  -8.1479162049519758e-10 -1.6547869732424748e-09 0.0000000000000000e+00  -4.7019073940897252e-10 -1.6726768277688937e-09 0.0000000000000000e+00  -2.7716633811187135e-10 -1.4804014641699431e-09 0.0000000000000000e+00  -3.1560934362593026e-10 2.2842880992109859e-09 0.0000000000000000e+00  -5.1313767009838198e-10 2.1153823423360315e-09 0.0000000000000000e+00  -8.6712684987696506e-10 2.0596554692071418e-09 0.0000000000000000e+00  -1.2409717783587893e-09 1.9488665403869179e-09 0.0000000000000000e+00  -1.5911942422785954e-09 1.7808086715759075e-09 0.0000000000000000e+00  -1.9036571921176776e-09 1.5605220980486534e-09 0.0000000000000000e+00  -2.1696943156319561e-09 1.2955397161733114e-09 0.0000000000000000e+00  -2.3824010601510293e-09 9.9439748877873274e-10 0.0000000000000000e+00  -2.5362606277660414e-09 6.6618474371348590e-10 0.0000000000000000e+00  -2.6272949911327213e-09 3.2034594648407836e-10 0.0000000000000000e+00  -2.6532031545545562e-09 -3.3460997785408671e-11 0.0000000000000000e+00  -2.6134287976539059e-09 -3.8550706959601049e-10 0.0000000000000000e+00  -2.5091698588723664e-09 -7.2614525608445775e-10 0.0000000000000000e+00  -2.3433400599018064e-09 -1.0459725782504129e-09 0.0000000000000000e+00  -2.1204846562695215e-09 -1.3360003820110423e-09 0.0000000000000000e+00  -1.8466641598283220e-09 -1.5878431044430651e-09 0.0000000000000000e+00  -1.5294198404114998e-09 -1.7939615463828500e-09 0.0000000000000000e+00  -1.1784392747249079e-09 -1.9480272870182567e-09 0.0000000000000000e+00  -8.0979173800592723e-10 -2.0451728140205153e-09 0.0000000000000000e+00  -4.6927355561706463e-10 -2.0797776623110429e-09 0.0000000000000000e+00  -2.9415365825887402e-10 -1.8974622778902502e-09 0.0000000000000000e+00  -3.4385590618492071e-10 2.7141175842254943e-09 0.0000000000000000e+00  -5.2494400851538546e-10 2.5346345873083799e-09 0.0000000000000000e+00  -8.7945788663769578e-10 2.4589081831770567e-09 0.0000000000000000e+00  -1.2570857414300543e-09 2.3201496074546071e-09 0.0000000000000000e+00  -1.6108315923931520e-09 2.1164901642241929e-09 0.0000000000000000e+00  -1.9255957738251384e-09 1.8531116189202462e-09 0.0000000000000000e+00  -2.1926955011100436e-09 1.5380405943868388e-09 0.0000000000000000e+00  -2.4055091246711465e-09 1.1807876322098870e-09 0.0000000000000000e+00  -2.5588315280003549e-09 7.9177727110701423e-10 0.0000000000000000e+00  -2.6489302962186662e-09 3.8200818306025618e-10 0.0000000000000000e+00  -2.6736650985849690e-09 -3.7193786775338629e-11 0.0000000000000000e+00  -2.6325587720860738e-09 -4.5439012245744698e-10 0.0000000000000000e+00  -2.5268140436287050e-09 -8.5823782956781000e-10 0.0000000000000000e+00  -2.3592825878593330e-09 -1.2377043291089880e-09 0.0000000000000000e+00  -2.1343923368589307e-09 -1.5823001913388080e-09 0.0000000000000000e+00  -1.8580600520431532e-09 -1.8823463272467304e-09 0.0000000000000000e+00  -1.5377411233863547e-09 -2.1293016257662585e-09 0.0000000000000000e+00  -1.1833341880101849e-09 -2.3161634279458096e-09 0.0000000000000000e+00  -8.1206218080724874e-10 -2.4375843584140654e-09 0.0000000000000000e+00  -4.7354807337018845e-10 -2.4872479907017048e-09 0.0000000000000000e+00  -3.1674840808515088e-10 -2.3106521788001198e-09 0.0000000000000000e+00  -3.7805390253359947e-10 3.1486259658084791e-09 0.0000000000000000e+00  -5.4119926275847453e-10 2.9591096979137327e-09 0.0000000000000000e+00  -8.9753028955385667e-10 2.8642644009352025e-09 0.0000000000000000e+00  -1.2808847441248878e-09 2.6972350551434915e-09 0.0000000000000000e+00  -1.6404164590917585e-09 2.4568487632438952e-09 0.0000000000000000e+00  -1.9598722549699506e-09 2.1490243393826883e-09 0.0000000000000000e+00  -2.2302821668930850e-09 1.7826278686900976e-09 0.0000000000000000e+00  -2.4450799672803799e-09 1.3682570056336232e-09 0.0000000000000000e+00  -2.5992373472350555e-09 9.1766379249479073e-10 0.0000000000000000e+00  -2.6892089494606159e-09 4.4334691531133867e-10 0.0000000000000000e+00  -2.7129998647139756e-09 -4.1767601131286979e-11 0.0000000000000000e+00  -2.6702172183705162e-09 -5.2459985969353798e-10 0.0000000000000000e+00  -2.5620857754081732e-09 -9.9217226357984313e-10 0.0000000000000000e+00  -2.3914291753372622e-09 -1.4318696247535914e-09 0.0000000000000000e+00  -2.1626238678622706e-09 -1.8317211525794082e-09 0.0000000000000000e+00  -1.8815612623225210e-09 -2.1807207303568925e-09 0.0000000000000000e+00  -1.5557943124923194e-09 -2.4691968141744854e-09 0.0000000000000000e+00  -1.1956570812431389e-09 -2.6892095608755005e-09 0.0000000000000000e+00  -8.1973095291570228e-10 -2.8345816894275830e-09 0.0000000000000000e+00  -4.8184759965742450e-10 -2.8980999496346973e-09 0.0000000000000000e+00  -3.4462019531315480e-10 -2.7240245610596820e-09 0.0000000000000000e+00  -4.1819988573950631e-10 3.5899050740399942e-09 0.0000000000000000e+00  -5.6060557149853953e-10 3.3908549081837362e-09 0.0000000000000000e+00  -9.1894388531307160e-10 3.2772981505881234e-09 0.0000000000000000e+00  -1.3087312428168757e-09 3.0816592690583824e-09 0.0000000000000000e+00  -1.6748523304338175e-09 2.8035444857217586e-09 0.0000000000000000e+00  -1.9998414576403956e-09 2.4499259026428702e-09 0.0000000000000000e+00  -2.2743662701551514e-09 2.0307935367949620e-09 0.0000000000000000e+00  -2.4918285420633025e-09 1.5579938816580885e-09 0.0000000000000000e+00  -2.6473150824098947e-09 1.0446628278924683e-09 0.0000000000000000e+00  -2.7374396646497263e-09 5.0478835981798170e-10 0.0000000000000000e+00  -2.7603470027622577e-09 -4.7149244586431049e-11 0.0000000000000000e+00  -2.7157313888862479e-09 -5.9648693660448965e-10 0.0000000000000000e+00  -2.6048449595960348e-09 -1.1286649232740163e-09 0.0000000000000000e+00  -2.4304940657873429e-09 -1.6295152502330105e-09 0.0000000000000000e+00  -2.1970294078452138e-09 -2.0855756905172453e-09 0.0000000000000000e+00  -1.9103672720918673e-09 -2.4844449034594927e-09 0.0000000000000000e+00  -1.5782315468814858e-09 -2.8151811868547507e-09 0.0000000000000000e+00  -1.2114706200900273e-09 -3.0687078996840348e-09 0.0000000000000000e+00  -8.3012432913687061e-10 -3.2378301739519521e-09 0.0000000000000000e+00  -4.9268440816460688e-10 -3.3143910022255725e-09 0.0000000000000000e+00  -3.7766411646859372e-10 -3.1406735810386397e-09 0.0000000000000000e+00  -4.6438760884951454e-10 4.0383052716866780e-09 0.0000000000000000e+00  -5.8157082652150676e-10 3.8305423236284425e-09 0.0000000000000000e+00  -9.4062167046777477e-10 3.6983283590683185e-09 0.0000000000000000e+00  -1.3360656432437043e-09 3.4735830996007547e-09 0.0000000000000000e+00  -1.7080427210524214e-09 3.1567358992149882e-09 0.0000000000000000e+00  -2.0378554873098339e-09 2.7560093051954979e-09 0.0000000000000000e+00  -2.3158457805885136e-09 2.2827363724938595e-09 0.0000000000000000e+00  -2.5354125392180113e-09 1.7501710233352046e-09 0.0000000000000000e+00  -2.6917849016535236e-09 1.1729090330339604e-09 0.0000000000000000e+00  -2.7817638520660723e-09 5.6643260717169011e-10 0.0000000000000000e+00  -2.8036558229845109e-09 -5.3266306480161783e-11 0.0000000000000000e+00  -2.7572495435227751e-09 -6.7000524453981757e-10 0.0000000000000000e+00  -2.6438131414094427e-09 -1.2677012635552559e-09 0.0000000000000000e+00  -2.4661092869826770e-09 -1.8306643103085129e-09 0.0000000000000000e+00  -2.2284307133376961e-09 -2.3439235107299923e-09 0.0000000000000000e+00  -1.9366899915314124e-09 -2.7936054792080709e-09 0.0000000000000000e+00  -1.5987611703375546e-09 -3.1673647921834203e-09 0.0000000000000000e+00  -1.2259989264692340e-09 -3.4548260791150785e-09 0.0000000000000000e+00  -8.3996917575359875e-10 -3.6476495167935781e-09 0.0000000000000000e+00  -5.0432580694829704e-10 -3.7367230872970734e-09 0.0000000000000000e+00  -4.1588509966843849e-10 -3.5621338693741672e-09 0.0000000000000000e+00  -5.1677116873836025e-10 4.4921846756208879e-09 0.0000000000000000e+00  -6.0220258265227415e-10 4.2771219887377648e-09 0.0000000000000000e+00  -9.5882206953597290e-10 4.1260569116905907e-09 0.0000000000000000e+00  -1.3573383314066622e-09 3.8715533924460044e-09 0.0000000000000000e+00  -1.7326533945361601e-09 3.5149516220948274e-09 0.0000000000000000e+00  -2.0648454618555940e-09 3.0658968745297724e-09 0.0000000000000000e+00  -2.3440474569529829e-09 2.5372552585556496e-09 0.0000000000000000e+00  -2.5637860071874628e-09 1.9438333820252008e-09 0.0000000000000000e+00  -2.7195533820163610e-09 1.3017560469237021e-09 0.0000000000000000e+00  -2.8084359972239722e-09 6.2799162202959610e-10 0.0000000000000000e+00  -2.8289645765256068e-09 -6.0022614174541210e-11 0.0000000000000000e+00  -2.7810389987180854e-09 -7.4467974457940788e-10 0.0000000000000000e+00  -2.6659113814349870e-09 -1.4084639314226306e-09 0.0000000000000000e+00  -2.4862263523016661e-09 -2.0342174615184355e-09 0.0000000000000000e+00  -2.2461159176435557e-09 -2.6054561677923442e-09 0.0000000000000000e+00  -1.9513752463539087e-09 -3.1067612497628723e-09 0.0000000000000000e+00  -1.6099217301194523e-09 -3.5242512210111098e-09 0.0000000000000000e+00  -1.2335425685833206e-09 -3.8460940348894628e-09 0.0000000000000000e+00  -8.4537687479622040e-10 -4.0626788359879590e-09 0.0000000000000000e+00  -5.1476255892633230e-10 -4.1639213615028471e-09 0.0000000000000000e+00  -4.5935411295964011e-10 -3.9881271593954721e-09 0.0000000000000000e+00  -5.7554323357331403e-10 4.9475775951883136e-09 0.0000000000000000e+00  -6.2024877197341658e-10 4.7274649923932157e-09 0.0000000000000000e+00  -9.6904034681926959e-10 4.5571879067740685e-09 0.0000000000000000e+00  -1.3658332968125175e-09 4.2721640299070239e-09 0.0000000000000000e+00  -1.7398108940087880e-09 3.8748145169465828e-09 0.0000000000000000e+00  -2.0698731397344592e-09 3.3764111490557906e-09 0.0000000000000000e+00  -2.3461422820682205e-09 2.7915505669581651e-09 0.0000000000000000e+00  -2.5625075556862845e-09 2.1367308915636571e-09 0.0000000000000000e+00  -2.7149487707893811e-09 1.4296534138533477e-09 0.0000000000000000e+00  -2.8010195442541464e-09 6.8872479285955408e-10 0.0000000000000000e+00  -2.8195887002790529e-09 -6.7294934471470098e-11 0.0000000000000000e+00  -2.7706970616701237e-09 -8.1953469642105668e-10 0.0000000000000000e+00  -2.6555231595183860e-09 -1.5491997413257247e-09 0.0000000000000000e+00  -2.4764592262541697e-09 -2.2377704707017710e-09 0.0000000000000000e+00  -2.2372882027951302e-09 -2.8672760740794171e-09 0.0000000000000000e+00  -1.9434763850972288e-09 -3.4206876982655162e-09 0.0000000000000000e+00  -1.6027851408639178e-09 -3.8824439837675472e-09 0.0000000000000000e+00  -1.2272923165136271e-09 -4.2390710444683267e-09 0.0000000000000000e+00  -8.4172921583530359e-10 -4.4795235266922901e-09 0.0000000000000000e+00  -5.2163782944737130e-10 -4.5927018004748921e-09 0.0000000000000000e+00  -5.0818602622986181e-10 -4.4163014385806341e-09 0.0000000000000000e+00  -6.4092354300536642e-10 5.3977644554442207e-09 0.0000000000000000e+00  -6.3301133044005068e-10 5.1759415571262088e-09 0.0000000000000000e+00  -9.6584580816965866e-10 4.9859822396223981e-09 0.0000000000000000e+00  -1.3534090630301656e-09 4.6696163656527097e-09 0.0000000000000000e+00  -1.7187199692589393e-09 4.2306322814622243e-09 0.0000000000000000e+00  -2.0396072067597747e-09 3.6822065318306130e-09 0.0000000000000000e+00  -2.3064826819577086e-09 3.0409046221295641e-09 0.0000000000000000e+00  -2.5139585200981263e-09 2.3250601620471328e-09 0.0000000000000000e+00  -2.6588514735671406e-09 1.5539658399493402e-09 0.0000000000000000e+00  -2.7394666318898355e-09 7.4735080795156983e-10 0.0000000000000000e+00  -2.7551885294680717e-09 -7.4919729237999653e-11 0.0000000000000000e+00  -2.7062449476154007e-09 -8.9297932188785914e-10 0.0000000000000000e+00  -2.5936503707185294e-09 -1.6870135397135879e-09 0.0000000000000000e+00  -2.4193337997359335e-09 -2.4373321248822010e-09 0.0000000000000000e+00  -2.1864328208386871e-09 -3.1245567037327832e-09 0.0000000000000000e+00  -1.8997518463049895e-09 -3.7299960325443514e-09 0.0000000000000000e+00  -1.5665831501266252e-09 -4.2362377628004144e-09 0.0000000000000000e+00  -1.1990682359215466e-09 -4.6279223109072468e-09 0.0000000000000000e+00  -8.2350776489212526e-10 -4.8923339318448586e-09 0.0000000000000000e+00  -5.2215338300735766e-10 -5.0172700228346289e-09 0.0000000000000000e+00  -5.6252608633545379e-10 -4.8418896438607598e-09 0.0000000000000000e+00  -7.1315811341673663e-10 5.8327277450745655e-09 0.0000000000000000e+00  -6.3724227075407402e-10 5.6139051031201511e-09 0.0000000000000000e+00  -9.4267279382154799e-10 5.4037157985757765e-09 0.0000000000000000e+00  -1.3101680162802233e-09 5.0551634443593806e-09 0.0000000000000000e+00  -1.6561910743419991e-09 4.5738497906715188e-09 0.0000000000000000e+00  -1.95769560