<?xml version="1.0"?>
<VTKFile type="UnstructuredGrid"  version="0.1"  >
<UnstructuredGrid>
<Piece  NumberOfPoints="651" NumberOfCells="1200">
<Points>
<DataArray  type="Float64"  NumberOfComponents="3"  format="ascii">0 0 0  50000 0 0  100000 0 0  150000 0 0  200000 0 0  250000 0 0  300000 0 0  350000 0 0  400000 0 0  450000 0 0  500000 0 0  550000 0 0  600000 0 0  650000 0 0  700000 0 0  750000 0 0  800000 0 0  850000 0 0  900000 0 0  950000 0 0  1000000 0 0  0 50000 0  50000 50000 0  100000 50000 0  150000 50000 0  200000 50000 0  250000 50000 0  300000 50000 0  350000 50000 0  400000 50000 0  450000 50000 0  500000 50000 0  550000 50000 0  600000 50000 0  650000 50000 0  700000 50000 0  750000 50000 0  800000 50000 0  850000 50000 0  900000 50000 0  950000 50000 0  1000000 50000 0  0 100000 0  50000 100000 0  100000 100000 0  150000 100000 0  200000 100000 0  250000 100000 0  300000 100000 0  350000 100000 0  400000 100000 0  450000 100000 0  500000 100000 0  550000 100000 0  600000 100000 0  650000 100000 0  700000 100000 0  750000 100000 0  800000 100000 0  850000 100000 0  900000 100000 0  950000 100000 0  1000000 100000 0  0 150000 0  50000 150000 0  100000 150000 0  150000 150000 0  200000 150000 0  250000 150000 0  300000 150000 0  350000 150000 0  400000 150000 0  450000 150000 0  500000 150000 0  550000 150000 0  600000 150000 0  650000 150000 0  700000 150000 0  750000 150000 0  800000 150000 0  850000 150000 0  900000 150000 0  950000 150000 0  1000000 150000 0  0 200000 0  50000 200000 0  100000 200000 0  150000 200000 0  200000 200000 0  250000 200000 0  300000 200000 0  350000 200000 0  400000 200000 0  450000 200000 0  500000 200000 0  550000 200000 0  600000 200000 0  650000 200000 0  700000 200000 0  750000 200000 0  800000 200000 0  850000 200000 0  900000 200000 0  950000 200000 0  1000000 200000 0  0 250000 0  50000 250000 0  100000 250000 0  150000 250000 0  200000 250000 0  250000 250000 0  300000 250000 0  350000 250000 0  400000 250000 0  450000 250000 0  500000 250000 0  550000 250000 0  600000 250000 0  650000 250000 0  700000 250000 0  750000 250000 0  800000 250000 0  850000 250000 0  900000 250000 0  950000 250000 0  1000000 250000 0  0 300000 0  50000 300000 0  100000 300000 0  150000 300000 0  200000 300000 0  250000 300000 0  300000 300000 0  350000 300000 0  400000 300000 0  450000 300000 0  500000 300000 0  550000 300000 0  600000 300000 0  650000 300000 0  700000 300000 0  750000 300000 0  800000 300000 0  850000 300000 0  900000 300000 0  950000 300000 0  1000000 300000 0  0 350000 0  50000 350000 0  100000 350000 0  150000 350000 0  200000 350000 0  250000 350000 0  300000 350000 0  350000 350000 0  400000 350000 0  450000 350000 0  500000 350000 0  550000 350000 0  600000 350000 0  650000 350000 0  700000 350000 0  750000 350000 0  800000 350000 0  850000 350000 0  900000 350000 0  950000 350000 0  1000000 350000 0  0 400000 0  50000 400000 0  100000 400000 0  150000 400000 0  200000 400000 0  250000 400000 0  300000 400000 0  350000 400000 0  400000 400000 0  450000 400000 0  500000 400000 0  550000 400000 0  600000 400000 0  650000 400000 0  700000 400000 0  750000 400000 0  800000 400000 0  850000 400000 0  900000 400000 0  950000 400000 0  1000000 400000 0  0 450000 0  50000 450000 0  100000 450000 0  150000 450000 0  200000 450000 0  250000 450000 0  300000 450000 0  350000 450000 0  400000 450000 0  450000 450000 0  500000 450000 0  550000 450000 0  600000 450000 0  650000 450000 0  700000 450000 0  750000 450000 0  800000 450000 0  850000 450000 0  900000 450000 0  950000 450000 0  1000000 450000 0  0 500000 0  50000 500000 0  100000 500000 0  150000 500000 0  200000 500000 0  250000 500000 0  300000 500000 0  350000 500000 0  400000 500000 0  450000 500000 0  500000 500000 0  550000 500000 0  600000 500000 0  650000 500000 0  700000 500000 0  750000 500000 0  800000 500000 0  850000 500000 0  900000 500000 0  950000 500000 0  1000000 500000 0  0 550000 0  50000 550000 0  100000 550000 0  150000 550000 0  200000 550000 0  250000 550000 0  300000 550000 0  350000 550000 0  400000 550000 0  450000 550000 0  500000 550000 0  550000 550000 0  600000 550000 0  650000 550000 0  700000 550000 0  750000 550000 0  800000 550000 0  850000 550000 0  900000 550000 0  950000 550000 0  1000000 550000 0  0 600000 0  50000 600000 0  100000 600000 0  150000 600000 0  200000 600000 0  250000 600000 0  300000 600000 0  350000 600000 0  400000 600000 0  450000 600000 0  500000 600000 0  550000 600000 0  600000 600000 0  650000 600000 0  700000 600000 0  750000 600000 0  800000 600000 0  850000 600000 0  900000 600000 0  950000 600000 0  1000000 600000 0  0 650000 0  50000 650000 0  100000 650000 0  150000 650000 0  200000 650000 0  250000 650000 0  300000 650000 0  350000 650000 0  400000 650000 0  450000 650000 0  500000 650000 0  550000 650000 0  600000 650000 0  650000 650000 0  700000 650000 0  750000 650000 0  800000 650000 0  850000 650000 0  900000 650000 0  950000 650000 0  1000000 650000 0  0 700000 0  50000 700000 0  100000 700000 0  150000 700000 0  200000 700000 0  250000 700000 0  300000 700000 0  350000 700000 0  400000 700000 0  450000 700000 0  500000 700000 0  550000 700000 0  600000 700000 0  650000 700000 0  700000 700000 0  750000 700000 0  800000 700000 0  850000 700000 0  900000 700000 0  950000 700000 0  1000000 700000 0  0 750000 0  50000 750000 0  100000 750000 0  150000 750000 0  200000 750000 0  250000 750000 0  300000 750000 0  350000 750000 0  400000 750000 0  450000 750000 0  500000 750000 0  550000 750000 0  600000 750000 0  650000 750000 0  700000 750000 0  750000 750000 0  800000 750000 0  850000 750000 0  900000 750000 0  950000 750000 0  1000000 750000 0  0 800000 0  50000 800000 0  100000 800000 0  150000 800000 0  200000 800000 0  250000 800000 0  300000 800000 0  350000 800000 0  400000 800000 0  450000 800000 0  500000 800000 0  550000 800000 0  600000 800000 0  650000 800000 0  700000 800000 0  750000 800000 0  800000 800000 0  850000 800000 0  900000 800000 0  950000 800000 0  1000000 800000 0  0 850000 0  50000 850000 0  100000 850000 0  150000 850000 0  200000 850000 0  250000 850000 0  300000 850000 0  350000 850000 0  400000 850000 0  450000 850000 0  500000 850000 0  550000 850000 0  600000 850000 0  650000 850000 0  700000 850000 0  750000 850000 0  800000 850000 0  850000 850000 0  900000 850000 0  950000 850000 0  1000000 850000 0  0 900000 0  50000 900000 0  100000 900000 0  150000 900000 0  200000 900000 0  250000 900000 0  300000 900000 0  350000 900000 0  400000 900000 0  450000 900000 0  500000 900000 0  550000 900000 0  600000 900000 0  650000 900000 0  700000 900000 0  750000 900000 0  800000 900000 0  850000 900000 0  900000 900000 0  950000 900000 0  1000000 900000 0  0 950000 0  50000 950000 0  100000 950000 0  150000 950000 0  200000 950000 0  250000 950000 0  300000 950000 0  350000 950000 0  400000 950000 0  450000 950000 0  500000 950000 0  550000 950000 0  600000 950000 0  650000 950000 0  700000 950000 0  750000 950000 0  800000 950000 0  850000 950000 0  900000 950000 0  950000 950000 0  1000000 950000 0  0 1000000 0  50000 1000000 0  100000 1000000 0  150000 1000000 0  200000 1000000 0  250000 1000000 0  300000 1000000 0  350000 1000000 0  400000 1000000 0  450000 1000000 0  500000 1000000 0  550000 1000000 0  600000 1000000 0  650000 1000000 0  700000 1000000 0  750000 1000000 0  800000 1000000 0  850000 1000000 0  900000 1000000 0  950000 1000000 0  1000000 1000000 0  0 1050000 0  50000 1050000 0  100000 1050000 0  150000 1050000 0  200000 1050000 0  250000 1050000 0  300000 1050000 0  350000 1050000 0  400000 1050000 0  450000 1050000 0  500000 1050000 0  550000 1050000 0  600000 1050000 0  650000 1050000 0  700000 1050000 0  750000 1050000 0  800000 1050000 0  850000 1050000 0  900000 1050000 0  950000 1050000 0  1000000 1050000 0  0 1100000 0  50000 1100000 0  100000 1100000 0  150000 1100000 0  200000 1100000 0  250000 1100000 0  300000 1100000 0  350000 1100000 0  400000 1100000 0  450000 1100000 0  500000 1100000 0  550000 1100000 0  600000 1100000 0  650000 1100000 0  700000 1100000 0  750000 1100000 0  800000 1100000 0  850000 1100000 0  900000 1100000 0  950000 1100000 0  1000000 1100000 0  0 1150000 0  50000 1150000 0  100000 1150000 0  150000 1150000 0  200000 1150000 0  250000 1150000 0  300000 1150000 0  350000 1150000 0  400000 1150000 0  450000 1150000 0  500000 1150000 0  550000 1150000 0  600000 1150000 0  650000 1150000 0  700000 1150000 0  750000 1150000 0  800000 1150000 0  850000 1150000 0  900000 1150000 0  950000 1150000 0  1000000 1150000 0  0 1200000 0  50000 1200000 0  100000 1200000 0  150000 1200000 0  200000 1200000 0  250000 1200000 0  300000 1200000 0  350000 1200000 0  400000 1200000 0  450000 1200000 0  500000 1200000 0  550000 1200000 0  600000 1200000 0  650000 1200000 0  700000 1200000 0  750000 1200000 0  800000 1200000 0  850000 1200000 0  900000 1200000 0  950000 1200000 0  1000000 1200000 0  0 1250000 0  50000 1250000 0  100000 1250000 0  150000 1250000 0  200000 1250000 0  250000 1250000 0  300000 1250000 0  350000 1250000 0  400000 1250000 0  450000 1250000 0  500000 1250000 0  550000 1250000 0  600000 1250000 0  650000 1250000 0  700000 1250000 0  750000 1250000 0  800000 1250000 0  850000 1250000 0  900000 1250000 0  950000 1250000 0  1000000 1250000 0  0 1300000 0  50000 1300000 0  100000 1300000 0  150000 1300000 0  200000 1300000 0  250000 1300000 0  300000 1300000 0  350000 1300000 0  400000 1300000 0  450000 1300000 0  500000 1300000 0  550000 1300000 0  600000 1300000 0  650000 1300000 0  700000 1300000 0  750000 1300000 0  800000 1300000 0  850000 1300000 0  900000 1300000 0  950000 1300000 0  1000000 1300000 0  0 1350000 0  50000 1350000 0  100000 1350000 0  150000 1350000 0  200000 1350000 0  250000 1350000 0  300000 1350000 0  350000 1350000 0  400000 1350000 0  450000 1350000 0  500000 1350000 0  550000 1350000 0  600000 1350000 0  650000 1350000 0  700000 135
[...]
<PointData  Vectors="f_15"> 
<DataArray  type="Float64"  Name="f_15"  NumberOfComponents="3" format="ascii">-3.2779625968454886e-10 2.7532694255700453e-10 0.0000000000000000e+00  -6.0189548138829826e-10 2.2365178332940814e-10 0.0000000000000000e+00  -1.0884067383961956e-09 2.0337879910459255e-10 0.0000000000000000e+00  -1.5582971888817721e-09 1.8564261306777452e-10 0.0000000000000000e+00  -1.9884948406551966e-09 1.6449752106201418e-10 0.0000000000000000e+00  -2.3664907549395905e-09 1.3940134054550931e-10 0.0000000000000000e+00  -2.6821136406828050e-09 1.1066568058280779e-10 0.0000000000000000e+00  -2.9271342594868767e-09 7.8888186889947670e-11 0.0000000000000000e+00  -3.0952600715024909e-09 4.4826268436866386e-11 0.0000000000000000e+00  -3.1822480078729566e-09 9.3308442288873275e-12 0.0000000000000000e+00  -3.1859965258774232e-09 -2.6697131306951843e-11 0.0000000000000000e+00  -3.1065901278769960e-09 -6.2340427672343422e-11 0.0000000000000000e+00  -2.9462915189157150e-09 -9.6695542832613417e-11 0.0000000000000000e+00  -2.7094815389266673e-09 -1.2890208956812954e-10 0.0000000000000000e+00  -2.4025576994968361e-09 -1.5817573087941021e-10 0.0000000000000000e+00  -2.0338575996045774e-09 -1.8385870300989526e-10 0.0000000000000000e+00  -1.6139548115240696e-09 -2.0554009300314581e-10 0.0000000000000000e+00  -1.1579187402262734e-09 -2.2339151694196651e-10 0.0000000000000000e+00  -6.9598488872211140e-10 -2.3784217868631313e-10 0.0000000000000000e+00  -3.1886292216852310e-10 -2.3091566509739676e-10 0.0000000000000000e+00  -1.6011707178830062e-10 -1.4827512302464103e-10 0.0000000000000000e+00  -2.7828020004738360e-10 5.2746408723350290e-10 0.0000000000000000e+00  -4.9527036309460441e-10 4.8310200678754460e-10 0.0000000000000000e+00  -8.7627526392070425e-10 4.9980849393028359e-10 0.0000000000000000e+00  -1.3036420760482038e-09 4.7520237482622456e-10 0.0000000000000000e+00  -1.7110717361999776e-09 4.3216180652215348e-10 0.0000000000000000e+00  -2.0772372085507377e-09 3.7578330094653470e-10 0.0000000000000000e+00  -2.3905588936715614e-09 3.0878346156459445e-10 0.0000000000000000e+00  -2.6421837963328081e-09 2.3339129833964384e-10 0.0000000000000000e+00  -2.8252925166559920e-09 1.5178884316304419e-10 0.0000000000000000e+00  -2.9350702049323232e-09 6.6218016358200092e-11 0.0000000000000000e+00  -2.9687358614585676e-09 -2.1020491356454500e-11 0.0000000000000000e+00  -2.9255713857545737e-09 -1.0760205529477910e-10 0.0000000000000000e+00  -2.8069265783371465e-09 -1.9122250947803986e-10 0.0000000000000000e+00  -2.6161930982934495e-09 -2.6964239144723324e-10 0.0000000000000000e+00  -2.3587573479003367e-09 -3.4072275895508899e-10 0.0000000000000000e+00  -2.0419790088899794e-09 -4.0243712037724446e-10 0.0000000000000000e+00  -1.6753781311471868e-09 -4.5280534588386338e-10 0.0000000000000000e+00  -1.2718080670045685e-09 -4.8944062635294313e-10 0.0000000000000000e+00  -8.5292845750493762e-10 -5.0677081251774173e-10 0.0000000000000000e+00  -4.7253613374376520e-10 -4.8359317539149482e-10 0.0000000000000000e+00  -2.5061956914419036e-10 -2.9518612373313773e-10 0.0000000000000000e+00  -2.7093762185332566e-10 9.7551513705841010e-10 0.0000000000000000e+00  -5.0539445592850966e-10 8.6387185165437819e-10 0.0000000000000000e+00  -8.6775822658461508e-10 8.7686712230555791e-10 0.0000000000000000e+00  -1.2585825788370644e-09 8.3882339623455086e-10 0.0000000000000000e+00  -1.6339851656937809e-09 7.6725469798334821e-10 0.0000000000000000e+00  -1.9742028259310486e-09 6.7057961173045243e-10 0.0000000000000000e+00  -2.2664925880803614e-09 5.5417608073953396e-10 0.0000000000000000e+00  -2.5017879158131564e-09 4.2236746485160022e-10 0.0000000000000000e+00  -2.6733599317046657e-09 2.7921529968467668e-10 0.0000000000000000e+00  -2.7765177743971726e-09 1.2878844658184833e-10 0.0000000000000000e+00  -2.8085672022296433e-09 -2.4784512616570503e-11 0.0000000000000000e+00  -2.7688090950727897e-09 -1.7734625975412524e-10 0.0000000000000000e+00  -2.6585322225589712e-09 -3.2476937836568274e-10 0.0000000000000000e+00  -2.4809899369997728e-09 -4.6301583026326683e-10 0.0000000000000000e+00  -2.2413682212886428e-09 -5.8817358506868121e-10 0.0000000000000000e+00  -1.9467854038368912e-09 -6.9642819482231071e-10 0.0000000000000000e+00  -1.6064699440362357e-09 -7.8386158857463739e-10 0.0000000000000000e+00  -1.2326605163471365e-09 -8.4577771035155071e-10 0.0000000000000000e+00  -8.4428456525958031e-10 -8.7475224072187737e-10 0.0000000000000000e+00  -4.8496141316198415e-10 -8.5686149636261909e-10 0.0000000000000000e+00  -2.6549247427980997e-10 -6.3969277633850835e-10 0.0000000000000000e+00  -2.7820346638880772e-10 1.4169981587981678e-09 0.0000000000000000e+00  -5.0489671687335805e-10 1.2781067377935414e-09 0.0000000000000000e+00  -8.6219696544376421e-10 1.2697849997450047e-09 0.0000000000000000e+00  -1.2390149693496994e-09 1.2122201512908191e-09 0.0000000000000000e+00  -1.5965173564574448e-09 1.1106382051461256e-09 0.0000000000000000e+00  -1.9193352209365421e-09 9.7312178512738957e-10 0.0000000000000000e+00  -2.1965989995734930e-09 8.0661386633376993e-10 0.0000000000000000e+00  -2.4197710270351862e-09 6.1731934072338377e-10 0.0000000000000000e+00  -2.5823508167011121e-09 4.1121477114573802e-10 0.0000000000000000e+00  -2.6797962447586683e-09 1.9428254228966111e-10 0.0000000000000000e+00  -2.7095025617343761e-09 -2.7432163583880923e-11 0.0000000000000000e+00  -2.6707974732805553e-09 -2.4785633162082091e-10 0.0000000000000000e+00  -2.5649273395205768e-09 -4.6096236970867608e-10 0.0000000000000000e+00  -2.3950251577940339e-09 -6.6084672919110593e-10 0.0000000000000000e+00  -2.1660603824042305e-09 -8.4178646743833676e-10 0.0000000000000000e+00  -1.8847868735500793e-09 -9.9823903130807600e-10 0.0000000000000000e+00  -1.5597698241021521e-09 -1.1247367365022628e-09 0.0000000000000000e+00  -1.2018885957459595e-09 -1.2156482759519758e-09 0.0000000000000000e+00  -8.2733280481769835e-10 -1.2648209244648796e-09 0.0000000000000000e+00  -4.7668241009605070e-10 -1.2644021252691703e-09 0.0000000000000000e+00  -2.6845721859799048e-10 -1.0588342747123174e-09 0.0000000000000000e+00  -2.9339068617730539e-10 1.8494327685707544e-09 0.0000000000000000e+00  -5.0629768249183859e-10 1.6945990547331203e-09 0.0000000000000000e+00  -8.6071145900212551e-10 1.6633579687163509e-09 0.0000000000000000e+00  -1.2333237384337086e-09 1.5811643160376472e-09 0.0000000000000000e+00  -1.5837038722969065e-09 1.4477726878985152e-09 0.0000000000000000e+00  -1.8980224647122162e-09 1.2694898753238729e-09 0.0000000000000000e+00  -2.1669425929541409e-09 1.0537949118903710e-09 0.0000000000000000e+00  -2.3828442614989716e-09 8.0828911075308071e-10 0.0000000000000000e+00  -2.5396995620818440e-09 5.4065308398886091e-10 0.0000000000000000e+00  -2.6332113616963635e-09 2.5868918823278370e-10 0.0000000000000000e+00  -2.6608996344092974e-09 -2.9693588691640006e-11 0.0000000000000000e+00  -2.6221326702618105e-09 -3.1655060820402280e-10 0.0000000000000000e+00  -2.5181203245818677e-09 -5.9400407200183855e-10 0.0000000000000000e+00  -2.3518736938041174e-09 -8.5435524781444796e-10 0.0000000000000000e+00  -2.1281293869882682e-09 -1.0901896236246638e-09 0.0000000000000000e+00  -1.8532439688981082e-09 -1.2944657133714146e-09 0.0000000000000000e+00  -1.5351350255960022e-09 -1.4606036662748036e-09 0.0000000000000000e+00  -1.1837527601635663e-09 -1.5826635389165576e-09 0.0000000000000000e+00  -8.1459944868687424e-10 -1.6555855294062870e-09 0.0000000000000000e+00  -4.7018836447687068e-10 -1.6735175957647758e-09 0.0000000000000000e+00  -2.7879801463721513e-10 -1.4820474259885864e-09 0.0000000000000000e+00  -3.1510425115427030e-10 2.2781455499785883e-09 0.0000000000000000e+00  -5.1286744487111461e-10 2.1110372448116719e-09 0.0000000000000000e+00  -8.6617892693195101e-10 2.0583007145851067e-09 0.0000000000000000e+00  -1.2395646831864531e-09 1.9490490293227968e-09 0.0000000000000000e+00  -1.5894650792288333e-09 1.7818021190817341e-09 0.0000000000000000e+00  -1.9017910654621425e-09 1.5618881432939551e-09 0.0000000000000000e+00  -2.1678424942222388e-09 1.2970235564778007e-09 0.0000000000000000e+00  -2.3806626817270438e-09 9.9585446766210871e-10 0.0000000000000000e+00  -2.5346898877385670e-09 6.6753424939505405e-10 0.0000000000000000e+00  -2.6259138683002908e-09 3.2154383124663031e-10 0.0000000000000000e+00  -2.6520125020586145e-09 -3.2438526530098135e-11 0.0000000000000000e+00  -2.6124164009149946e-09 -3.8467294987985572e-10 0.0000000000000000e+00  -2.5083159269108623e-09 -7.2550742852930145e-10 0.0000000000000000e+00  -2.3426210118402706e-09 -1.0455378701858238e-09 0.0000000000000000e+00  -2.1198760797645263e-09 -1.3357772312992284e-09 0.0000000000000000e+00  -1.8461438385207109e-09 -1.5878431976990854e-09 0.0000000000000000e+00  -1.5289720510339590e-09 -1.7941993779941302e-09 0.0000000000000000e+00  -1.1780634445892561e-09 -1.9485138784959874e-09 0.0000000000000000e+00  -8.0953194944704185e-10 -2.0458912139482857e-09 0.0000000000000000e+00  -4.6921778717699381e-10 -2.0804585239234790e-09 0.0000000000000000e+00  -2.9559332774896451e-10 -1.8989498555624193e-09 0.0000000000000000e+00  -3.4287632208921975e-10 2.7079774779036666e-09 0.0000000000000000e+00  -5.2473250860603649e-10 2.5299791711356741e-09 0.0000000000000000e+00  -8.7881341029456003e-10 2.4571100477913314e-09 0.0000000000000000e+00  -1.2561093805953738e-09 2.3199616931244214e-09 0.0000000000000000e+00  -1.6095587891146398e-09 2.1172656984343973e-09 0.0000000000000000e+00  -1.9241364672047558e-09 1.8544076524040572e-09 0.0000000000000000e+00  -2.1911638765110597e-09 1.5395656241540320e-09 0.0000000000000000e+00  -2.4039958321036586e-09 1.1823570946010752e-09 0.0000000000000000e+00  -2.5573978006361639e-09 7.9327786417822261e-10 0.0000000000000000e+00  -2.6476115556199980e-09 3.8337211467714686e-10 0.0000000000000000e+00  -2.6724772137952759e-09 -3.6006164992587683e-11 0.0000000000000000e+00  -2.6315040985083699e-09 -4.5340167980477146e-10 0.0000000000000000e+00  -2.5258864101749249e-09 -8.5746206107348825e-10 0.0000000000000000e+00  -2.3584712977749483e-09 -1.2371501920913676e-09 0.0000000000000000e+00  -2.1336855805563576e-09 -1.5819751205673422e-09 0.0000000000000000e+00  -1.8574482352087203e-09 -1.8822575304908928e-09 0.0000000000000000e+00  -1.5372207755859524e-09 -2.1294548737913454e-09 0.0000000000000000e+00  -1.1829144898996195e-09 -2.3165561905892813e-09 0.0000000000000000e+00  -8.1178754127010352e-10 -2.4381817882075843e-09 0.0000000000000000e+00  -4.7346030653376734e-10 -2.4877473326419331e-09 0.0000000000000000e+00  -3.1797495803086440e-10 -2.3119858994567817e-09 0.0000000000000000e+00  -3.7655304481451108e-10 3.1425663372833259e-09 0.0000000000000000e+00  -5.4103393857764672e-10 2.9543099044701699e-09 0.0000000000000000e+00  -8.9716043729212307e-10 2.8621753049223048e-09 0.0000000000000000e+00  -1.2803096281130868e-09 2.6967495174434086e-09 0.0000000000000000e+00  -1.6396003944273075e-09 2.4573984585665030e-09 0.0000000000000000e+00  -1.9588633328850696e-09 2.1501908704211871e-09 0.0000000000000000e+00  -2.2291527297897578e-09 1.7841119429531805e-09 0.0000000000000000e+00  -2.4438998005501915e-09 1.3698533570325938e-09 0.0000000000000000e+00  -2.5980623643966016e-09 9.1923677655318311e-10 0.0000000000000000e+00  -2.6880786493016367e-09 4.4480967831294550e-10 0.0000000000000000e+00  -2.7119390483413971e-09 -4.0469097358374371e-11 0.0000000000000000e+00  -2.6692392870190211e-09 -5.2349834354921524e-10 0.0000000000000000e+00  -2.5611963040934595e-09 -9.9128713946807435e-10 0.0000000000000000e+00  -2.3906292884949705e-09 -1.4312123221646062e-09 0.0000000000000000e+00  -2.1619133583875195e-09 -1.8312984059129482e-09 0.0000000000000000e+00  -1.8809415511250864e-09 -2.1805359326486768e-09 0.0000000000000000e+00  -1.5552714758720084e-09 -2.4692489342772280e-09 0.0000000000000000e+00  -1.1952462925538083e-09 -2.6894869898728193e-09 0.0000000000000000e+00  -8.1947330869490320e-10 -2.8350397548999389e-09 0.0000000000000000e+00  -4.8173901029267756e-10 -2.8984158409755769e-09 0.0000000000000000e+00  -3.4561845953421491e-10 -2.7252131629572273e-09 0.0000000000000000e+00  -4.1614825172634601e-10 3.5840180702047124e-09 0.0000000000000000e+00  -5.6048503663817155e-10 3.3860570720824443e-09 0.0000000000000000e+00  -9.1883695499396374e-10 3.2750514961657104e-09 0.0000000000000000e+00  -1.3085359406735316e-09 3.0809615691786653e-09 0.0000000000000000e+00  -1.6744799114542263e-09 2.8038944263954017e-09 0.0000000000000000e+00  -1.9992920469009549e-09 2.4509408022059597e-09 0.0000000000000000e+00  -2.2736742418128878e-09 2.0321845804879981e-09 0.0000000000000000e+00  -2.4910393287321731e-09 1.5595513000893732e-09 0.0000000000000000e+00  -2.6464727461178895e-09 1.0462400019959600e-09 0.0000000000000000e+00  -2.7365811431810705e-09 5.0628627506946628e-10 0.0000000000000000e+00  -2.7595005570733583e-09 -4.5795294449954973e-11 0.0000000000000000e+00  -2.7149173815710495e-09 -5.9531777527022376e-10 0.0000000000000000e+00  -2.6040777386768748e-09 -1.1277051987004984e-09 0.0000000000000000e+00  -2.4297842652960667e-09 -1.6287788258297394e-09 0.0000000000000000e+00  -2.1963863146231732e-09 -2.0850690765544562e-09 0.0000000000000000e+00  -1.9098010644806003e-09 -2.4841688780790406e-09 0.0000000000000000e+00  -1.5777553505288615e-09 -2.8151302938404480e-09 0.0000000000000000e+00  -1.2111032665368712e-09 -3.0688654822011211e-09 0.0000000000000000e+00  -8.2990244791968796e-10 -3.2381475210763205e-09 0.0000000000000000e+00  -4.9256089576791690e-10 -3.3145342748445288e-09 0.0000000000000000e+00  -3.7842469423264393e-10 -3.1417282464954863e-09 0.0000000000000000e+00  -4.6177634000657827e-10 4.0326946701712549e-09 0.0000000000000000e+00  -5.8149925670886808e-10 3.8258815696287975e-09 0.0000000000000000e+00  -9.4077375180030277e-10 3.6960402488701818e-09 0.0000000000000000e+00  -1.3362337857974642e-09 3.4727553806756473e-09 0.0000000000000000e+00  -1.7080955575046161e-09 3.1569250718523501e-09 0.0000000000000000e+00  -2.0377562334684227e-09 2.7568718233786387e-09 0.0000000000000000e+00  -2.3155972660552569e-09 2.2840043355261307e-09 0.0000000000000000e+00  -2.5350370808793912e-09 1.7516418367337974e-09 0.0000000000000000e+00  -2.6913124941613132e-09 1.1744349274848956e-09 0.0000000000000000e+00  -2.7812251216458000e-09 5.6790948985561662e-10 0.0000000000000000e+00  -2.8030784880695216e-09 -5.1909229184482692e-11 0.0000000000000000e+00  -2.7566572807348997e-09 -6.6881420972559113e-10 0.0000000000000000e+00  -2.6432259252999259e-09 -1.2667048087996663e-09 0.0000000000000000e+00  -2.4655445226665652e-09 -1.8298783229716011e-09 0.0000000000000000e+00  -2.2279046905025504e-09 -2.3433546476234489e-09 0.0000000000000000e+00  -1.9362193124489081e-09 -2.7932530791338539e-09 0.0000000000000000e+00  -1.5983639465241809e-09 -3.1672210649064784e-09 0.0000000000000000e+00  -1.2256962775348605e-09 -3.4548723412962125e-09 0.0000000000000000e+00  -8.3979327587633371e-10 -3.6478367126280493e-09 0.0000000000000000e+00  -5.0419038338587961e-10 -3.7367124217596709e-09 0.0000000000000000e+00  -4.1640403053860443e-10 -3.5630669072051605e-09 0.0000000000000000e+00  -5.1361522455183216e-10 4.4869619613203805e-09 0.0000000000000000e+00  -6.0218611528130875e-10 4.2727246854883465e-09 0.0000000000000000e+00  -9.5922987768230722e-10 4.1238281932914329e-09 0.0000000000000000e+00  -1.3578533463984569e-09 3.8706687602686944e-09 0.0000000000000000e+00  -1.7331081969474641e-09 3.5150207728520270e-09 0.0000000000000000e+00  -2.0651746986492447e-09 3.0666165504418282e-09 0.0000000000000000e+00  -2.3442288965209949e-09 2.5383843451613870e-09 0.0000000000000000e+00  -2.5638221071612919e-09 1.9451842497170800e-09 0.0000000000000000e+00  -2.7194604363769431e-09 1.3031872764522093e-09 0.0000000000000000e+00  -2.8082367867502590e-09 6.2940014553785583e-10 0.0000000000000000e+00  -2.8286837851002977e-09 -5.8709249652323532e-11 0.0000000000000000e+00  -2.7807008058896049e-09 -7.4351028512853836e-10 0.0000000000000000e+00  -2.6655385965227484e-09 -1.4074691382996893e-09 0.0000000000000000e+00  -2.4858405167763126e-09 -2.0334145626167949e-09 0.0000000000000000e+00  -2.2457379006717648e-09 -2.6048520988362872e-09 0.0000000000000000e+00  -1.9510259409763413e-09 -3.1063547666630360e-09 0.0000000000000000e+00  -1.6096225809863847e-09 -3.5240336886717820e-09 0.0000000000000000e+00  -1.2333161541176516e-09 -3.8460466656397745e-09 0.0000000000000000e+00  -8.4525134907960179e-10 -4.0627542564270279e-09 0.0000000000000000e+00  -5.1461657976818407e-10 -4.1637799226296087e-09 0.0000000000000000e+00  -4.5963241587241488e-10 -3.9889510255738953e-09 0.0000000000000000e+00  -5.7188378576270002e-10 4.9428565107690832e-09 0.0000000000000000e+00  -6.2029286511821929e-10 4.7234478140395016e-09 0.0000000000000000e+00  -9.6969587975215531e-10 4.5551050910059698e-09 0.0000000000000000e+00  -1.3666734511833332e-09 4.2712846277878824e-09 0.0000000000000000e+00  -1.7406374000843527e-09 3.8748008101544387e-09 0.0000000000000000e+00  -2.0705985772638683e-09 3.3770012106489038e-09 0.0000000000000000e+00  -2.3467251540125468e-09 2.7925335356900492e-09 0.0000000000000000e+00  -2.5629342928464528e-09 2.1379390792958106e-09 0.0000000000000000e+00  -2.7152236192029011e-09 1.4309570245305271e-09 0.0000000000000000e+00  -2.8011573194851238e-09 6.9002648916900456e-10 0.0000000000000000e+00  -2.8196097515201597e-09 -6.6065540613250052e-11 0.0000000000000000e+00  -2.7706241156672373e-09 -8.1842620388265527e-10 0.0000000000000000e+00  -2.6553796247462349e-09 -1.5482434633720584e-09 0.0000000000000000e+00  -2.4762685093303724e-09 -2.2369841494317587e-09 0.0000000000000000e+00  -2.2370736171681282e-09 -2.8666668032114487e-09 0.0000000000000000e+00  -1.9432612788906028e-09 -3.4202540954310420e-09 0.0000000000000000e+00  -1.6025929588848012e-09 -3.8821773987726583e-09 0.0000000000000000e+00  -1.2271465226541859e-09 -4.2389535332718347e-09 0.0000000000000000e+00  -8.4165443630471528e-10 -4.4795101813050817e-09 0.0000000000000000e+00  -5.2148172361334521e-10 -4.5924548592360622e-09 0.0000000000000000e+00  -5.0822912365426270e-10 -4.4170280513349229e-09 0.0000000000000000e+00  -6.3682898144164715e-10 5.3936541578382857e-09 0.0000000000000000e+00  -6.3311864387115855e-10 5.1724083575317138e-09 0.0000000000000000e+00  -9.6673245512796971e-10 4.9841175176347449e-09 0.0000000000000000e+00  -1.3545436302267796e-09 4.6687929585085623e-09 0.0000000000000000e+00  -1.7198786691672199e-09 4.2305671894846006e-09 0.0000000000000000e+00  -2.0406860340606021e-09 3.6826805672622131e-09 0.0000000000000000e+00  -2.3074259019616436e-09 3.0417393380458133e-09 0.0000000000000000e+00  -2.5147402694621755e-09 2.3261108392048221e-09 0.0000000000000000e+00  -2.6594660707352037e-09 1.5551177315353884e-09 0.0000000000000000e+00  -2.7399215616510369e-09 7.4851560926376500e-10 0.0000000000000000e+00  -2.7554992997346318e-09 -7.3807523958347599e-11 0.0000000000000000e+00  -2.7064315699807311e-09 -8.9196600171390359e-10 0.0000000000000000e+00  -2.5937351700752763e-09 -1.6861294909122479e-09 0.0000000000000000e+00  -2.4193402095290860e-09 -2.4365947533551013e-09 0.0000000000000000e+00  -2.1863848169319296e-09 -3.1239729369875172e-09 0.0000000000000000e+00  -1.8996736950919266e-09 -3.7295644090272340e-09 0.0000000000000000e+00  -1.5664991909683833e-09 -4.2359498611850746e-09 0.0000000000000000e+00  -1.1990023345148133e-09 -4.6277612000788280e-09 0.0000000000000000e+00  -8.2348140709701534e-10 -4.8922570555989251e-09 0.0000000000000000e+00  -5.2198714454919295e-10 -5.0169432701806258e-09 0.0000000000000000e+00  -5.6234314632527237e-10 -4.8425299689068216e-09 0.0000000000000000e+00  -7.0872309263641882e-10 5.8293249372837580e-09 0.0000000000000000e+00  -6.3741098876794295e-10 5.6109425543898091e-09 0.0000000000000000e+00  -9.4376281321655154e-10 5.4021265821337044e-09 0.0000000000000000e+00  -1.3115549051188891e-09 5.0544357738855260e-09 0.0000000000000000e+00  -1.6576317765400500e-09 4.5737588336145895e-09 0.0000000000000000e+00  -1.95907454