<?xml version="1.0"?>
<VTKFile type="UnstructuredGrid"  version="0.1"  >
<UnstructuredGrid>
<Piece  NumberOfPoints="651" NumberOfCells="1200">
<Points>
<DataArray  type="Float64"  NumberOfComponents="3"  format="ascii">0 0 0  50000 0 0  100000 0 0  150000 0 0  200000 0 0  250000 0 0  300000 0 0  350000 0 0  400000 0 0  450000 0 0  500000 0 0  550000 0 0  600000 0 0  650000 0 0  700000 0 0  750000 0 0  800000 0 0  850000 0 0  900000 0 0  950000 0 0  1000000 0 0  0 50000 0  50000 50000 0  100000 50000 0  150000 50000 0  200000 50000 0  250000 50000 0  300000 50000 0  350000 50000 0  400000 50000 0  450000 50000 0  500000 50000 0  550000 50000 0  600000 50000 0  650000 50000 0  700000 50000 0  750000 50000 0  800000 50000 0  850000 50000 0  900000 50000 0  950000 50000 0  1000000 50000 0  0 100000 0  50000 100000 0  100000 100000 0  150000 100000 0  200000 100000 0  250000 100000 0  300000 100000 0  350000 100000 0  400000 100000 0  450000 100000 0  500000 100000 0  550000 100000 0  600000 100000 0  650000 100000 0  700000 100000 0  750000 100000 0  800000 100000 0  850000 100000 0  900000 100000 0  950000 100000 0  1000000 100000 0  0 150000 0  50000 150000 0  100000 150000 0  150000 150000 0  200000 150000 0  250000 150000 0  300000 150000 0  350000 150000 0  400000 150000 0  450000 150000 0  500000 150000 0  550000 150000 0  600000 150000 0  650000 150000 0  700000 150000 0  750000 150000 0  800000 150000 0  850000 150000 0  900000 150000 0  950000 150000 0  1000000 150000 0  0 200000 0  50000 200000 0  100000 200000 0  150000 200000 0  200000 200000 0  250000 200000 0  300000 200000 0  350000 200000 0  400000 200000 0  450000 200000 0  500000 200000 0  550000 200000 0  600000 200000 0  650000 200000 0  700000 200000 0  750000 200000 0  800000 200000 0  850000 200000 0  900000 200000 0  950000 200000 0  1000000 200000 0  0 250000 0  50000 250000 0  100000 250000 0  150000 250000 0  200000 250000 0  250000 250000 0  300000 250000 0  350000 250000 0  400000 250000 0  450000 250000 0  500000 250000 0  550000 250000 0  600000 250000 0  650000 250000 0  700000 250000 0  750000 250000 0  800000 250000 0  850000 250000 0  900000 250000 0  950000 250000 0  1000000 250000 0  0 300000 0  50000 300000 0  100000 300000 0  150000 300000 0  200000 300000 0  250000 300000 0  300000 300000 0  350000 300000 0  400000 300000 0  450000 300000 0  500000 300000 0  550000 300000 0  600000 300000 0  650000 300000 0  700000 300000 0  750000 300000 0  800000 300000 0  850000 300000 0  900000 300000 0  950000 300000 0  1000000 300000 0  0 350000 0  50000 350000 0  100000 350000 0  150000 350000 0  200000 350000 0  250000 350000 0  300000 350000 0  350000 350000 0  400000 350000 0  450000 350000 0  500000 350000 0  550000 350000 0  600000 350000 0  650000 350000 0  700000 350000 0  750000 350000 0  800000 350000 0  850000 350000 0  900000 350000 0  950000 350000 0  1000000 350000 0  0 400000 0  50000 400000 0  100000 400000 0  150000 400000 0  200000 400000 0  250000 400000 0  300000 400000 0  350000 400000 0  400000 400000 0  450000 400000 0  500000 400000 0  550000 400000 0  600000 400000 0  650000 400000 0  700000 400000 0  750000 400000 0  800000 400000 0  850000 400000 0  900000 400000 0  950000 400000 0  1000000 400000 0  0 450000 0  50000 450000 0  100000 450000 0  150000 450000 0  200000 450000 0  250000 450000 0  300000 450000 0  350000 450000 0  400000 450000 0  450000 450000 0  500000 450000 0  550000 450000 0  600000 450000 0  650000 450000 0  700000 450000 0  750000 450000 0  800000 450000 0  850000 450000 0  900000 450000 0  950000 450000 0  1000000 450000 0  0 500000 0  50000 500000 0  100000 500000 0  150000 500000 0  200000 500000 0  250000 500000 0  300000 500000 0  350000 500000 0  400000 500000 0  450000 500000 0  500000 500000 0  550000 500000 0  600000 500000 0  650000 500000 0  700000 500000 0  750000 500000 0  800000 500000 0  850000 500000 0  900000 500000 0  950000 500000 0  1000000 500000 0  0 550000 0  50000 550000 0  100000 550000 0  150000 550000 0  200000 550000 0  250000 550000 0  300000 550000 0  350000 550000 0  400000 550000 0  450000 550000 0  500000 550000 0  550000 550000 0  600000 550000 0  650000 550000 0  700000 550000 0  750000 550000 0  800000 550000 0  850000 550000 0  900000 550000 0  950000 550000 0  1000000 550000 0  0 600000 0  50000 600000 0  100000 600000 0  150000 600000 0  200000 600000 0  250000 600000 0  300000 600000 0  350000 600000 0  400000 600000 0  450000 600000 0  500000 600000 0  550000 600000 0  600000 600000 0  650000 600000 0  700000 600000 0  750000 600000 0  800000 600000 0  850000 600000 0  900000 600000 0  950000 600000 0  1000000 600000 0  0 650000 0  50000 650000 0  100000 650000 0  150000 650000 0  200000 650000 0  250000 650000 0  300000 650000 0  350000 650000 0  400000 650000 0  450000 650000 0  500000 650000 0  550000 650000 0  600000 650000 0  650000 650000 0  700000 650000 0  750000 650000 0  800000 650000 0  850000 650000 0  900000 650000 0  950000 650000 0  1000000 650000 0  0 700000 0  50000 700000 0  100000 700000 0  150000 700000 0  200000 700000 0  250000 700000 0  300000 700000 0  350000 700000 0  400000 700000 0  450000 700000 0  500000 700000 0  550000 700000 0  600000 700000 0  650000 700000 0  700000 700000 0  750000 700000 0  800000 700000 0  850000 700000 0  900000 700000 0  950000 700000 0  1000000 700000 0  0 750000 0  50000 750000 0  100000 750000 0  150000 750000 0  200000 750000 0  250000 750000 0  300000 750000 0  350000 750000 0  400000 750000 0  450000 750000 0  500000 750000 0  550000 750000 0  600000 750000 0  650000 750000 0  700000 750000 0  750000 750000 0  800000 750000 0  850000 750000 0  900000 750000 0  950000 750000 0  1000000 750000 0  0 800000 0  50000 800000 0  100000 800000 0  150000 800000 0  200000 800000 0  250000 800000 0  300000 800000 0  350000 800000 0  400000 800000 0  450000 800000 0  500000 800000 0  550000 800000 0  600000 800000 0  650000 800000 0  700000 800000 0  750000 800000 0  800000 800000 0  850000 800000 0  900000 800000 0  950000 800000 0  1000000 800000 0  0 850000 0  50000 850000 0  100000 850000 0  150000 850000 0  200000 850000 0  250000 850000 0  300000 850000 0  350000 850000 0  400000 850000 0  450000 850000 0  500000 850000 0  550000 850000 0  600000 850000 0  650000 850000 0  700000 850000 0  750000 850000 0  800000 850000 0  850000 850000 0  900000 850000 0  950000 850000 0  1000000 850000 0  0 900000 0  50000 900000 0  100000 900000 0  150000 900000 0  200000 900000 0  250000 900000 0  300000 900000 0  350000 900000 0  400000 900000 0  450000 900000 0  500000 900000 0  550000 900000 0  600000 900000 0  650000 900000 0  700000 900000 0  750000 900000 0  800000 900000 0  850000 900000 0  900000 900000 0  950000 900000 0  1000000 900000 0  0 950000 0  50000 950000 0  100000 950000 0  150000 950000 0  200000 950000 0  250000 950000 0  300000 950000 0  350000 950000 0  400000 950000 0  450000 950000 0  500000 950000 0  550000 950000 0  600000 950000 0  650000 950000 0  700000 950000 0  750000 950000 0  800000 950000 0  850000 950000 0  900000 950000 0  950000 950000 0  1000000 950000 0  0 1000000 0  50000 1000000 0  100000 1000000 0  150000 1000000 0  200000 1000000 0  250000 1000000 0  300000 1000000 0  350000 1000000 0  400000 1000000 0  450000 1000000 0  500000 1000000 0  550000 1000000 0  600000 1000000 0  650000 1000000 0  700000 1000000 0  750000 1000000 0  800000 1000000 0  850000 1000000 0  900000 1000000 0  950000 1000000 0  1000000 1000000 0  0 1050000 0  50000 1050000 0  100000 1050000 0  150000 1050000 0  200000 1050000 0  250000 1050000 0  300000 1050000 0  350000 1050000 0  400000 1050000 0  450000 1050000 0  500000 1050000 0  550000 1050000 0  600000 1050000 0  650000 1050000 0  700000 1050000 0  750000 1050000 0  800000 1050000 0  850000 1050000 0  900000 1050000 0  950000 1050000 0  1000000 1050000 0  0 1100000 0  50000 1100000 0  100000 1100000 0  150000 1100000 0  200000 1100000 0  250000 1100000 0  300000 1100000 0  350000 1100000 0  400000 1100000 0  450000 1100000 0  500000 1100000 0  550000 1100000 0  600000 1100000 0  650000 1100000 0  700000 1100000 0  750000 1100000 0  800000 1100000 0  850000 1100000 0  900000 1100000 0  950000 1100000 0  1000000 1100000 0  0 1150000 0  50000 1150000 0  100000 1150000 0  150000 1150000 0  200000 1150000 0  250000 1150000 0  300000 1150000 0  350000 1150000 0  400000 1150000 0  450000 1150000 0  500000 1150000 0  550000 1150000 0  600000 1150000 0  650000 1150000 0  700000 1150000 0  750000 1150000 0  800000 1150000 0  850000 1150000 0  900000 1150000 0  950000 1150000 0  1000000 1150000 0  0 1200000 0  50000 1200000 0  100000 1200000 0  150000 1200000 0  200000 1200000 0  250000 1200000 0  300000 1200000 0  350000 1200000 0  400000 1200000 0  450000 1200000 0  500000 1200000 0  550000 1200000 0  600000 1200000 0  650000 1200000 0  700000 1200000 0  750000 1200000 0  800000 1200000 0  850000 1200000 0  900000 1200000 0  950000 1200000 0  1000000 1200000 0  0 1250000 0  50000 1250000 0  100000 1250000 0  150000 1250000 0  200000 1250000 0  250000 1250000 0  300000 1250000 0  350000 1250000 0  400000 1250000 0  450000 1250000 0  500000 1250000 0  550000 1250000 0  600000 1250000 0  650000 1250000 0  700000 1250000 0  750000 1250000 0  800000 1250000 0  850000 1250000 0  900000 1250000 0  950000 1250000 0  1000000 1250000 0  0 1300000 0  50000 1300000 0  100000 1300000 0  150000 1300000 0  200000 1300000 0  250000 1300000 0  300000 1300000 0  350000 1300000 0  400000 1300000 0  450000 1300000 0  500000 1300000 0  550000 1300000 0  600000 1300000 0  650000 1300000 0  700000 1300000 0  750000 1300000 0  800000 1300000 0  850000 1300000 0  900000 1300000 0  950000 1300000 0  1000000 1300000 0  0 1350000 0  50000 1350000 0  100000 1350000 0  150000 1350000 0  200000 1350000 0  250000 1350000 0  300000 1350000 0  350000 1350000 0  400000 1350000 0  450000 1350000 0  500000 1350000 0  550000 1350000 0  600000 1350000 0  650000 1350000 0  700000 135
[...]
<PointData  Vectors="f_15"> 
<DataArray  type="Float64"  Name="f_15"  NumberOfComponents="3" format="ascii">-3.1475779385780084e-10 3.2456698539781686e-10 0.0000000000000000e+00  -5.8705601158925709e-10 2.7056862840464857e-10 0.0000000000000000e+00  -1.0717863163814459e-09 2.4629660698311464e-10 0.0000000000000000e+00  -1.5403582944621837e-09 2.2487818681589361e-10 0.0000000000000000e+00  -1.9694040155243138e-09 2.0052489780433621e-10 0.0000000000000000e+00  -2.3463658966252739e-09 1.7254739819258235e-10 0.0000000000000000e+00  -2.6610500402852187e-09 1.4117956901694609e-10 0.0000000000000000e+00  -2.9052168902469411e-09 1.0698376234972270e-10 0.0000000000000000e+00  -3.0725672658813365e-09 7.0700438996830438e-11 0.0000000000000000e+00  -3.1588507943452841e-09 3.3173885597467316e-11 0.0000000000000000e+00  -3.1619560866160896e-09 -4.6946588350508275e-12 0.0000000000000000e+00  -3.0819541943921350e-09 -4.1982735303278652e-11 0.0000000000000000e+00  -2.9210899667801101e-09 -7.7777992416909788e-11 0.0000000000000000e+00  -2.6837212453276106e-09 -1.1120851947270879e-10 0.0000000000000000e+00  -2.3762166042818591e-09 -1.4147642646495926e-10 0.0000000000000000e+00  -2.0068777308191880e-09 -1.6790860770225155e-10 0.0000000000000000e+00  -1.5862334666461869e-09 -1.9007626363244252e-10 0.0000000000000000e+00  -1.1292979271234876e-09 -2.0812659432902796e-10 0.0000000000000000e+00  -6.6627421599027134e-10 -2.2245598682399676e-10 0.0000000000000000e+00  -2.8807007607461866e-10 -2.1516823026782311e-10 0.0000000000000000e+00  -1.2868408068195501e-10 -1.3179926138121645e-10 0.0000000000000000e+00  -2.6797029515534098e-10 5.7608432138308616e-10 0.0000000000000000e+00  -4.9808474872420932e-10 4.9681999934535018e-10 0.0000000000000000e+00  -8.8841302214781814e-10 5.0291542618914342e-10 0.0000000000000000e+00  -1.3096272686787853e-09 4.7934779292340940e-10 0.0000000000000000e+00  -1.7108050459839540e-09 4.3689425353115642e-10 0.0000000000000000e+00  -2.0727444115650394e-09 3.8077310283244517e-10 0.0000000000000000e+00  -2.3831374248917052e-09 3.1384227533006034e-10 0.0000000000000000e+00  -2.6326958511880573e-09 2.3841131715986166e-10 0.0000000000000000e+00  -2.8143798021578155e-09 1.5671687947217516e-10 0.0000000000000000e+00  -2.9232304732210710e-09 7.1032808775711010e-11 0.0000000000000000e+00  -2.9563663452390043e-09 -1.6321264302630393e-11 0.0000000000000000e+00  -2.9129993410477621e-09 -1.0300717759329113e-10 0.0000000000000000e+00  -2.7944328021947599e-09 -1.8670758852446880e-10 0.0000000000000000e+00  -2.6040340597355988e-09 -2.6516525412015640e-10 0.0000000000000000e+00  -2.3471922585649899e-09 -3.3621097264167873e-10 0.0000000000000000e+00  -2.0313108176132485e-09 -3.9775917153268322e-10 0.0000000000000000e+00  -1.6660180746536088e-09 -4.4770560372056579e-10 0.0000000000000000e+00  -1.2643159062463592e-09 -4.8341496526970315e-10 0.0000000000000000e+00  -8.4767134198997322e-10 -4.9889138604196632e-10 0.0000000000000000e+00  -4.6797725169725398e-10 -4.7079638972976848e-10 0.0000000000000000e+00  -2.1961211269670909e-10 -2.7974125498171426e-10 0.0000000000000000e+00  -2.6478219231571454e-10 1.0216118096000885e-09 0.0000000000000000e+00  -5.0911233430644408e-10 8.7151366080067846e-10 0.0000000000000000e+00  -8.8384408477682369e-10 8.6701873575835817e-10 0.0000000000000000e+00  -1.2751373738185915e-09 8.2938341711056229e-10 0.0000000000000000e+00  -1.6464745245207297e-09 7.5996317209033172e-10 0.0000000000000000e+00  -1.9819683487287250e-09 6.6527025984478725e-10 0.0000000000000000e+00  -2.2702375356005800e-09 5.5047698879992593e-10 0.0000000000000000e+00  -2.5023793558888948e-09 4.1994498249841933e-10 0.0000000000000000e+00  -2.6715704036060110e-09 2.7781924030854654e-10 0.0000000000000000e+00  -2.7730014465060630e-09 1.2824074412867175e-10 0.0000000000000000e+00  -2.8038732471872724e-09 -2.4608324482730519e-11 0.0000000000000000e+00  -2.7634024470463040e-09 -1.7652863608383754e-10 0.0000000000000000e+00  -2.6528166245159113e-09 -3.2335378310940776e-10 0.0000000000000000e+00  -2.4753325963595835e-09 -4.6100015773908202e-10 0.0000000000000000e+00  -2.2361268609688608e-09 -5.8549031751593670e-10 0.0000000000000000e+00  -1.9423359111103025e-09 -6.9290417723210298e-10 0.0000000000000000e+00  -1.6032165106931198e-09 -7.7915128221434870e-10 0.0000000000000000e+00  -1.2309503256555502e-09 -8.3928747993070454e-10 0.0000000000000000e+00  -8.4391967914891484e-10 -8.6561590806044586e-10 0.0000000000000000e+00  -4.8256025553919555e-10 -8.4471365047645065e-10 0.0000000000000000e+00  -2.3438551340731867e-10 -6.2668367183400124e-10 0.0000000000000000e+00  -2.7595538405847347e-10 1.4600317498726015e-09 0.0000000000000000e+00  -5.0516868181681747e-10 1.2930166522987880e-09 0.0000000000000000e+00  -8.7252410300872148e-10 1.2615167374265098e-09 0.0000000000000000e+00  -1.2534302119378701e-09 1.1994233946832600e-09 0.0000000000000000e+00  -1.6108223677626698e-09 1.0986108037649018e-09 0.0000000000000000e+00  -1.9313910526169544e-09 9.6314883213654165e-10 0.0000000000000000e+00  -2.2058444398731715e-09 7.9881614745729297e-10 0.0000000000000000e+00  -2.4263854025275175e-09 6.1149107442028562e-10 0.0000000000000000e+00  -2.5867819658000189e-09 4.0708852493268056e-10 0.0000000000000000e+00  -2.6825535888991860e-09 1.9161378356717558e-10 0.0000000000000000e+00  -2.7110782158269566e-09 -2.8842567401171100e-11 0.0000000000000000e+00  -2.6716404516148768e-09 -2.4815732343837691e-10 0.0000000000000000e+00  -2.5654397733509337e-09 -4.6024914221986277e-10 0.0000000000000000e+00  -2.3955670730526453e-09 -6.5915195527570278e-10 0.0000000000000000e+00  -2.1669542497336292e-09 -8.3906341825268883e-10 0.0000000000000000e+00  -1.8863098364761709e-09 -9.9433796213173348e-10 0.0000000000000000e+00  -1.5621072287870277e-09 -1.1193898687336453e-09 0.0000000000000000e+00  -1.2049787785870606e-09 -1.2085167586728331e-09 0.0000000000000000e+00  -8.3030719741817124e-10 -1.2557351760098452e-09 0.0000000000000000e+00  -4.7549665251962164e-10 -1.2544254142085446e-09 0.0000000000000000e+00  -2.3757443623859796e-10 -1.0486515129669600e-09 0.0000000000000000e+00  -2.9471426043790783e-10 1.8890668803128299e-09 0.0000000000000000e+00  -5.0487883440675485e-10 1.7145094935930113e-09 0.0000000000000000e+00  -8.6626151373110100e-10 1.6599287300062903e-09 0.0000000000000000e+00  -1.2432151135824244e-09 1.5696590967114989e-09 0.0000000000000000e+00  -1.5956470171830665e-09 1.4346062481313799e-09 0.0000000000000000e+00  -1.9100002371538540e-09 1.2573453248057138e-09 0.0000000000000000e+00  -2.1778500952932223e-09 1.0436210988103822e-09 0.0000000000000000e+00  -2.3922969287069205e-09 8.0028862057957784e-10 0.0000000000000000e+00  -2.5477286856130786e-09 5.3473115224863676e-10 0.0000000000000000e+00  -2.6400504709188356e-09 2.5465196385920912e-10 0.0000000000000000e+00  -2.6668608389153897e-09 -3.2053006217587519e-11 0.0000000000000000e+00  -2.6275409952254545e-09 -3.1741420431765991e-10 0.0000000000000000e+00  -2.5232795128961530e-09 -5.9351003057100937e-10 0.0000000000000000e+00  -2.3570456395437713e-09 -8.5258578837336505e-10 0.0000000000000000e+00  -2.1335138381322880e-09 -1.0871625938890171e-09 0.0000000000000000e+00  -1.8589447358728467e-09 -1.2901363612692315e-09 0.0000000000000000e+00  -1.5410933921162650e-09 -1.4548984867046447e-09 0.0000000000000000e+00  -1.1896036982358093e-09 -1.5755930084767973e-09 0.0000000000000000e+00  -8.1921544708429204e-10 -1.6474977016280027e-09 0.0000000000000000e+00  -4.6971407796393391e-10 -1.6659586528141029e-09 0.0000000000000000e+00  -2.4837468564086089e-10 -1.4748014514609173e-09 0.0000000000000000e+00  -3.1975429893267964e-10 2.3140743298391594e-09 0.0000000000000000e+00  -5.1057853574933733e-10 2.1329463449351192e-09 0.0000000000000000e+00  -8.6830604499131288e-10 2.0591320135877956e-09 0.0000000000000000e+00  -1.2452177599840579e-09 1.9404352169627857e-09 0.0000000000000000e+00  -1.5978621262312614e-09 1.7696797502333790e-09 0.0000000000000000e+00  -1.9116210331097552e-09 1.5495083562270171e-09 0.0000000000000000e+00  -2.1780560578326359e-09 1.2859672167707966e-09 0.0000000000000000e+00  -2.3906467978399225e-09 9.8677221358738762e-10 0.0000000000000000e+00  -2.5441898909875285e-09 6.6059509622281101e-10 0.0000000000000000e+00  -2.6349064552227907e-09 3.1668704757108857e-10 0.0000000000000000e+00  -2.6605998790601925e-09 -3.5368875008156485e-11 0.0000000000000000e+00  -2.6207520510513878e-09 -3.8585774693367622e-10 0.0000000000000000e+00  -2.5165541666362607e-09 -7.2511620334089151e-10 0.0000000000000000e+00  -2.3508792640679196e-09 -1.0437116144331438e-09 0.0000000000000000e+00  -2.1281993754999669e-09 -1.3326262746682371e-09 0.0000000000000000e+00  -1.8544622210092257e-09 -1.5834655773688461e-09 0.0000000000000000e+00  -1.5370417624954867e-09 -1.7887351485165238e-09 0.0000000000000000e+00  -1.1853649590458657e-09 -1.9422588909556398e-09 0.0000000000000000e+00  -8.1490558434426974e-10 -2.0394837704609622e-09 0.0000000000000000e+00  -4.6914669360534520e-10 -2.0757086663997970e-09 0.0000000000000000e+00  -2.6585950529770165e-10 -1.8946898283130537e-09 0.0000000000000000e+00  -3.5062602460498867e-10 2.7399026729857698e-09 0.0000000000000000e+00  -5.2197230246273611e-10 2.5520563495184581e-09 0.0000000000000000e+00  -8.7845427802831434e-10 2.4607950844686448e-09 0.0000000000000000e+00  -1.2582620771919385e-09 2.3143098958384949e-09 0.0000000000000000e+00  -1.6144051792111239e-09 2.1071937573926856e-09 0.0000000000000000e+00  -1.9310738369564379e-09 1.8430944454721610e-09 0.0000000000000000e+00  -2.1994536540350365e-09 1.5288655403077020e-09 0.0000000000000000e+00  -2.4130494537937016e-09 1.1732294791338652e-09 0.0000000000000000e+00  -2.5668406058120419e-09 7.8612966033030355e-10 0.0000000000000000e+00  -2.6572489563939330e-09 3.7829362183490290e-10 0.0000000000000000e+00  -2.6822340176506899e-09 -3.9092966166942752e-11 0.0000000000000000e+00  -2.6413658440736689e-09 -4.5465519398364195e-10 0.0000000000000000e+00  -2.5358499225820262e-09 -8.5707226874799834e-10 0.0000000000000000e+00  -2.3685026739608484e-09 -1.2353162329944004e-09 0.0000000000000000e+00  -2.1436813273316127e-09 -1.5789044273935430e-09 0.0000000000000000e+00  -1.8671960839071821e-09 -1.8781883105905203e-09 0.0000000000000000e+00  -1.5463575622831450e-09 -2.1247083259736603e-09 0.0000000000000000e+00  -1.1908586406185596e-09 -2.3116260708898489e-09 0.0000000000000000e+00  -8.1742378446735107e-10 -2.4338647536853791e-09 0.0000000000000000e+00  -4.7362296054225465e-10 -2.4860443591382191e-09 0.0000000000000000e+00  -2.8914646901503522e-10 -2.3107338387801552e-09 0.0000000000000000e+00  -3.8715315911601660e-10 3.1701920142749755e-09 0.0000000000000000e+00  -5.3800143102564199e-10 2.9753514323988011e-09 0.0000000000000000e+00  -8.9492947534115562e-10 2.8674686891149254e-09 0.0000000000000000e+00  -1.2796460232779510e-09 2.6935708825219145e-09 0.0000000000000000e+00  -1.6412754871192607e-09 2.4496485169597148e-09 0.0000000000000000e+00  -1.9628216604611371e-09 2.1406647328989278e-09 0.0000000000000000e+00  -2.2350094592945773e-09 1.7746457107938903e-09 0.0000000000000000e+00  -2.4512149656770986e-09 1.3615327461675190e-09 0.0000000000000000e+00  -2.6064633466309512e-09 9.1261662329858570e-10 0.0000000000000000e+00  -2.6972893746263192e-09 4.4009738335632543e-10 0.0000000000000000e+00  -2.7217635714905500e-09 -4.3280038411642064e-11 0.0000000000000000e+00  -2.6795282751813772e-09 -5.2453988257448883e-10 0.0000000000000000e+00  -2.5718098752283726e-09 -9.9076353805643332e-10 0.0000000000000000e+00  -2.4014010140584882e-09 -1.4293742346915085e-09 0.0000000000000000e+00  -2.1726166707559072e-09 -1.8284397019744899e-09 0.0000000000000000e+00  -1.8912594990321331e-09 -2.1770120204502733e-09 0.0000000000000000e+00  -1.5647698406518817e-09 -2.4655167793980988e-09 0.0000000000000000e+00  -1.2033266419832755e-09 -2.6861680295253627e-09 0.0000000000000000e+00  -8.2508293355361902e-10 -2.8330148881747428e-09 0.0000000000000000e+00  -4.8205006580644432e-10 -2.8998400481165000e-09 0.0000000000000000e+00  -3.1788997073999236e-10 -2.7269654894945886e-09 0.0000000000000000e+00  -4.2930833016496457e-10 3.6070571948927384e-09 0.0000000000000000e+00  -5.5727650095962131e-10 3.4051936370071344e-09 0.0000000000000000e+00  -9.1514190899709762e-10 3.2809798960361310e-09 0.0000000000000000e+00  -1.3056083293039604e-09 3.0796459963889412e-09 0.0000000000000000e+00  -1.6734472715424190e-09 2.7983674468972217e-09 0.0000000000000000e+00  -2.0004823178502503e-09 2.4435098585240477e-09 0.0000000000000000e+00  -2.2770093311084835e-09 2.0244914370334529e-09 0.0000000000000000e+00  -2.4962622534218085e-09 1.5526558098646170e-09 0.0000000000000000e+00  -2.6532794865098216e-09 1.0407426008262817e-09 0.0000000000000000e+00  -2.7446814277183927e-09 5.0245324785283771e-10 0.0000000000000000e+00  -2.7686332382046166e-09 -4.7927133364176581e-11 0.0000000000000000e+00  -2.7248410430945951e-09 -5.9586422806461199e-10 0.0000000000000000e+00  -2.6145498831015680e-09 -1.1268846873676302e-09 0.0000000000000000e+00  -2.4405366669699301e-09 -1.6268858093963216e-09 0.0000000000000000e+00  -2.2071009738562518e-09 -2.0824676264053288e-09 0.0000000000000000e+00  -1.9200900627814829e-09 -2.4813037958378134e-09 0.0000000000000000e+00  -1.5871451024804147e-09 -2.8125532005507773e-09 0.0000000000000000e+00  -1.2189983040616019e-09 -3.0672762313488844e-09 0.0000000000000000e+00  -8.3531123592996515e-10 -3.2384701208777540e-09 0.0000000000000000e+00  -4.9297673344616223e-10 -3.3190604054766781e-09 0.0000000000000000e+00  -3.5196677781667575e-10 -3.1464573831659157e-09 0.0000000000000000e+00  -4.7715544432454635e-10 4.0508818677062913e-09 0.0000000000000000e+00  -5.7816267623205484e-10 3.8424637525213544e-09 0.0000000000000000e+00  -9.3590643524717984e-10 3.7018561047248067e-09 0.0000000000000000e+00  -1.3314857906788950e-09 3.4727312778540145e-09 0.0000000000000000e+00  -1.7048085040227003e-09 3.1533677077228406e-09 0.0000000000000000e+00  -2.0365129927456369e-09 2.7515937362523525e-09 0.0000000000000000e+00  -2.3165558320358614e-09 2.2783653866249511e-09 0.0000000000000000e+00  -2.5381111662293494e-09 1.7465724256082102e-09 0.0000000000000000e+00  -2.6962914588157999e-09 1.1704944568948010e-09 0.0000000000000000e+00  -2.7878451146802747e-09 5.6536267806644810e-10 0.0000000000000000e+00  -2.8110563081576929e-09 -5.3018820442457170e-11 0.0000000000000000e+00  -2.7656994003233841e-09 -6.6860452604810519e-10 0.0000000000000000e+00  -2.6530230901287837e-09 -1.2654133081889504e-09 0.0000000000000000e+00  -2.4757595082831956e-09 -1.8278375261884726e-09 0.0000000000000000e+00  -2.2381586634701003e-09 -2.3409834262484875e-09 0.0000000000000000e+00  -1.9460808071512153e-09 -2.7910610174403563e-09 0.0000000000000000e+00  -1.6073405843150837e-09 -3.1658228701111155e-09 0.0000000000000000e+00  -1.2332039374956532e-09 -3.4550143268442296e-09 0.0000000000000000e+00  -8.4489576885066886e-10 -3.6504649210747395e-09 0.0000000000000000e+00  -5.0468876002000350e-10 -3.7442471146593888e-09 0.0000000000000000e+00  -3.9136169257734343e-10 -3.5707236394651346e-09 0.0000000000000000e+00  -5.3081909355705263e-10 4.5000694816274769e-09 0.0000000000000000e+00  -5.9875034340623876e-10 4.2862667757064194e-09 0.0000000000000000e+00  -9.5342592603069127e-10 4.1289635059122892e-09 0.0000000000000000e+00  -1.3516598001796361e-09 3.8714501351277475e-09 0.0000000000000000e+00  -1.7279918876236818e-09 3.5131376038353588e-09 0.0000000000000000e+00  -2.0618804505202069e-09 3.0634136318853052e-09 0.0000000000000000e+00  -2.3430836126469419e-09 2.5349053124231957e-09 0.0000000000000000e+00  -2.5648793883721465e-09 1.9421687476982688e-09 0.0000000000000000e+00  -2.7226028650157863e-09 1.3010911012467327e-09 0.0000000000000000e+00  -2.8132460971233053e-09 6.2843559979526659e-10 0.0000000000000000e+00  -2.8352832362744514e-09 -5.8527116277129719e-11 0.0000000000000000e+00  -2.7885762198119326e-09 -7.4232196350472674e-10 0.0000000000000000e+00  -2.6743450862512309e-09 -1.4055388353344078e-09 0.0000000000000000e+00  -2.4952011196188259e-09 -2.0311099610343929e-09 0.0000000000000000e+00  -2.2552391861735507e-09 -2.6026350959928634e-09 0.0000000000000000e+00  -1.9602143208183145e-09 -3.1047811483935740e-09 0.0000000000000000e+00  -1.6180008564953111e-09 -3.5237594226167016e-09 0.0000000000000000e+00  -1.2403156522328365e-09 -3.8478453634398687e-09 0.0000000000000000e+00  -8.4998659738567864e-10 -4.0675848412106382e-09 0.0000000000000000e+00  -5.1518711929959221e-10 -4.1741858889956387e-09 0.0000000000000000e+00  -4.3612450334827236e-10 -3.9994670730962508e-09 0.0000000000000000e+00  -5.9046790284481318e-10 4.9507117378156212e-09 0.0000000000000000e+00  -6.1678319753727704e-10 4.7335996909871759e-09 0.0000000000000000e+00  -9.6317025359318404e-10 4.5591382113593064e-09 0.0000000000000000e+00  -1.3593732302887517e-09 4.2724793976223263e-09 0.0000000000000000e+00  -1.7340946820510950e-09 3.8743076307563885e-09 0.0000000000000000e+00  -2.0656539855364594e-09 3.3757321323342264e-09 0.0000000000000000e+00  -2.3438187035203925e-09 2.7912099279341932e-09 0.0000000000000000e+00  -2.5622247994038350e-09 2.1370785321779807e-09 0.0000000000000000e+00  -2.7166743300964219e-09 1.4308717110318375e-09 0.0000000000000000e+00  -2.8046003407635873e-09 6.9083895941394242e-10 0.0000000000000000e+00  -2.8247907276757199e-09 -6.4397603775428456e-11 0.0000000000000000e+00  -2.7772299951343494e-09 -8.1608433027126064e-10 0.0000000000000000e+00  -2.6630537526894373e-09 -1.5455269821265419e-09 0.0000000000000000e+00  -2.4846175506963716e-09 -2.2342953497232711e-09 0.0000000000000000e+00  -2.2456703796804607e-09 -2.8645028508314103e-09 0.0000000000000000e+00  -1.9516464293513684e-09 -3.4192044467757121e-09 0.0000000000000000e+00  -1.6102746183965980e-09 -3.8829255034839087e-09 0.0000000000000000e+00  -1.2335745131219318e-09 -4.2422899350914151e-09 0.0000000000000000e+00  -8.4599213474410236e-10 -4.4864042223249449e-09 0.0000000000000000e+00  -5.2212095070099994e-10 -4.6055674934983309e-09 0.0000000000000000e+00  -4.8634845969856985e-10 -4.4303186518425941e-09 0.0000000000000000e+00  -6.5630748727371865e-10 5.3961571489700903e-09 0.0000000000000000e+00  -6.2956530512540275e-10 5.1789430744984126e-09 0.0000000000000000e+00  -9.5969898429479382e-10 4.9867502589887848e-09 0.0000000000000000e+00  -1.3464610859759247e-09 4.6700986944345020e-09 0.0000000000000000e+00  -1.7122995025636013e-09 4.2312140237047137e-09 0.0000000000000000e+00  -2.0344987891083412e-09 3.6831816759133309e-09 0.0000000000000000e+00  -2.3031395965791915e-09 3.0425017058046054e-09 0.0000000000000000e+00  -2.5125866729956070e-09 2.3274180365363509e-09 0.0000000000000000e+00  -2.6594717283569680e-09 1.5571160161220041e-09 0.0000000000000000e+00  -2.7419652468037836e-09 7.5121349632268857e-10 0.0000000000000000e+00  -2.7593556654894873e-09 -7.0530492489255477e-11 0.0000000000000000e+00  -2.7118019102244270e-09 -8.8834688073989237e-10 0.0000000000000000e+00  -2.6002675829003034e-09 -1.6825101187340596e-09 0.0000000000000000e+00  -2.4266421349002940e-09 -2.4334127745457825e-09 0.0000000000000000e+00  -2.1940309064204539e-09 -3.1217562464411983e-09 0.0000000000000000e+00  -1.9072111814452892e-09 -3.7289284492540975e-09 0.0000000000000000e+00  -1.5734493362946163e-09 -4.2375976586882275e-09 0.0000000000000000e+00  -1.2048366586559129e-09 -4.6324954921207578e-09 0.0000000000000000e+00  -8.2741294223663496e-10 -4.9010585210447602e-09 0.0000000000000000e+00  -5.2269546846364441e-10 -5.0325826379239179e-09 0.0000000000000000e+00  -5.4215729447729802e-10 -4.8584963486243289e-09 0.0000000000000000e+00  -7.2858342767734442e-10 5.8264642810846271e-09 0.0000000000000000e+00  -6.3385337529986536e-10 5.6137515603525691e-09 0.0000000000000000e+00  -9.3644310249044218e-10 5.4031683265729236e-09 0.0000000000000000e+00  -1.3030109908528583e-09 5.0556317374451395e-09 0.0000000000000000e+00  -1.6493993255678792e-09 4.5753380695508595e-09 0.0000000000000000e+00  -1.95205414