<?xml version="1.0"?>
<VTKFile type="UnstructuredGrid"  version="0.1"  >
<UnstructuredGrid>
<Piece  NumberOfPoints="651" NumberOfCells="1200">
<Points>
<DataArray  type="Float64"  NumberOfComponents="3"  format="ascii">0 0 0  50000 0 0  100000 0 0  150000 0 0  200000 0 0  250000 0 0  300000 0 0  350000 0 0  400000 0 0  450000 0 0  500000 0 0  550000 0 0  600000 0 0  650000 0 0  700000 0 0  750000 0 0  800000 0 0  850000 0 0  900000 0 0  950000 0 0  1000000 0 0  0 50000 0  50000 50000 0  100000 50000 0  150000 50000 0  200000 50000 0  250000 50000 0  300000 50000 0  350000 50000 0  400000 50000 0  450000 50000 0  500000 50000 0  550000 50000 0  600000 50000 0  650000 50000 0  700000 50000 0  750000 50000 0  800000 50000 0  850000 50000 0  900000 50000 0  950000 50000 0  1000000 50000 0  0 100000 0  50000 100000 0  100000 100000 0  150000 100000 0  200000 100000 0  250000 100000 0  300000 100000 0  350000 100000 0  400000 100000 0  450000 100000 0  500000 100000 0  550000 100000 0  600000 100000 0  650000 100000 0  700000 100000 0  750000 100000 0  800000 100000 0  850000 100000 0  900000 100000 0  950000 100000 0  1000000 100000 0  0 150000 0  50000 150000 0  100000 150000 0  150000 150000 0  200000 150000 0  250000 150000 0  300000 150000 0  350000 150000 0  400000 150000 0  450000 150000 0  500000 150000 0  550000 150000 0  600000 150000 0  650000 150000 0  700000 150000 0  750000 150000 0  800000 150000 0  850000 150000 0  900000 150000 0  950000 150000 0  1000000 150000 0  0 200000 0  50000 200000 0  100000 200000 0  150000 200000 0  200000 200000 0  250000 200000 0  300000 200000 0  350000 200000 0  400000 200000 0  450000 200000 0  500000 200000 0  550000 200000 0  600000 200000 0  650000 200000 0  700000 200000 0  750000 200000 0  800000 200000 0  850000 200000 0  900000 200000 0  950000 200000 0  1000000 200000 0  0 250000 0  50000 250000 0  100000 250000 0  150000 250000 0  200000 250000 0  250000 250000 0  300000 250000 0  350000 250000 0  400000 250000 0  450000 250000 0  500000 250000 0  550000 250000 0  600000 250000 0  650000 250000 0  700000 250000 0  750000 250000 0  800000 250000 0  850000 250000 0  900000 250000 0  950000 250000 0  1000000 250000 0  0 300000 0  50000 300000 0  100000 300000 0  150000 300000 0  200000 300000 0  250000 300000 0  300000 300000 0  350000 300000 0  400000 300000 0  450000 300000 0  500000 300000 0  550000 300000 0  600000 300000 0  650000 300000 0  700000 300000 0  750000 300000 0  800000 300000 0  850000 300000 0  900000 300000 0  950000 300000 0  1000000 300000 0  0 350000 0  50000 350000 0  100000 350000 0  150000 350000 0  200000 350000 0  250000 350000 0  300000 350000 0  350000 350000 0  400000 350000 0  450000 350000 0  500000 350000 0  550000 350000 0  600000 350000 0  650000 350000 0  700000 350000 0  750000 350000 0  800000 350000 0  850000 350000 0  900000 350000 0  950000 350000 0  1000000 350000 0  0 400000 0  50000 400000 0  100000 400000 0  150000 400000 0  200000 400000 0  250000 400000 0  300000 400000 0  350000 400000 0  400000 400000 0  450000 400000 0  500000 400000 0  550000 400000 0  600000 400000 0  650000 400000 0  700000 400000 0  750000 400000 0  800000 400000 0  850000 400000 0  900000 400000 0  950000 400000 0  1000000 400000 0  0 450000 0  50000 450000 0  100000 450000 0  150000 450000 0  200000 450000 0  250000 450000 0  300000 450000 0  350000 450000 0  400000 450000 0  450000 450000 0  500000 450000 0  550000 450000 0  600000 450000 0  650000 450000 0  700000 450000 0  750000 450000 0  800000 450000 0  850000 450000 0  900000 450000 0  950000 450000 0  1000000 450000 0  0 500000 0  50000 500000 0  100000 500000 0  150000 500000 0  200000 500000 0  250000 500000 0  300000 500000 0  350000 500000 0  400000 500000 0  450000 500000 0  500000 500000 0  550000 500000 0  600000 500000 0  650000 500000 0  700000 500000 0  750000 500000 0  800000 500000 0  850000 500000 0  900000 500000 0  950000 500000 0  1000000 500000 0  0 550000 0  50000 550000 0  100000 550000 0  150000 550000 0  200000 550000 0  250000 550000 0  300000 550000 0  350000 550000 0  400000 550000 0  450000 550000 0  500000 550000 0  550000 550000 0  600000 550000 0  650000 550000 0  700000 550000 0  750000 550000 0  800000 550000 0  850000 550000 0  900000 550000 0  950000 550000 0  1000000 550000 0  0 600000 0  50000 600000 0  100000 600000 0  150000 600000 0  200000 600000 0  250000 600000 0  300000 600000 0  350000 600000 0  400000 600000 0  450000 600000 0  500000 600000 0  550000 600000 0  600000 600000 0  650000 600000 0  700000 600000 0  750000 600000 0  800000 600000 0  850000 600000 0  900000 600000 0  950000 600000 0  1000000 600000 0  0 650000 0  50000 650000 0  100000 650000 0  150000 650000 0  200000 650000 0  250000 650000 0  300000 650000 0  350000 650000 0  400000 650000 0  450000 650000 0  500000 650000 0  550000 650000 0  600000 650000 0  650000 650000 0  700000 650000 0  750000 650000 0  800000 650000 0  850000 650000 0  900000 650000 0  950000 650000 0  1000000 650000 0  0 700000 0  50000 700000 0  100000 700000 0  150000 700000 0  200000 700000 0  250000 700000 0  300000 700000 0  350000 700000 0  400000 700000 0  450000 700000 0  500000 700000 0  550000 700000 0  600000 700000 0  650000 700000 0  700000 700000 0  750000 700000 0  800000 700000 0  850000 700000 0  900000 700000 0  950000 700000 0  1000000 700000 0  0 750000 0  50000 750000 0  100000 750000 0  150000 750000 0  200000 750000 0  250000 750000 0  300000 750000 0  350000 750000 0  400000 750000 0  450000 750000 0  500000 750000 0  550000 750000 0  600000 750000 0  650000 750000 0  700000 750000 0  750000 750000 0  800000 750000 0  850000 750000 0  900000 750000 0  950000 750000 0  1000000 750000 0  0 800000 0  50000 800000 0  100000 800000 0  150000 800000 0  200000 800000 0  250000 800000 0  300000 800000 0  350000 800000 0  400000 800000 0  450000 800000 0  500000 800000 0  550000 800000 0  600000 800000 0  650000 800000 0  700000 800000 0  750000 800000 0  800000 800000 0  850000 800000 0  900000 800000 0  950000 800000 0  1000000 800000 0  0 850000 0  50000 850000 0  100000 850000 0  150000 850000 0  200000 850000 0  250000 850000 0  300000 850000 0  350000 850000 0  400000 850000 0  450000 850000 0  500000 850000 0  550000 850000 0  600000 850000 0  650000 850000 0  700000 850000 0  750000 850000 0  800000 850000 0  850000 850000 0  900000 850000 0  950000 850000 0  1000000 850000 0  0 900000 0  50000 900000 0  100000 900000 0  150000 900000 0  200000 900000 0  250000 900000 0  300000 900000 0  350000 900000 0  400000 900000 0  450000 900000 0  500000 900000 0  550000 900000 0  600000 900000 0  650000 900000 0  700000 900000 0  750000 900000 0  800000 900000 0  850000 900000 0  900000 900000 0  950000 900000 0  1000000 900000 0  0 950000 0  50000 950000 0  100000 950000 0  150000 950000 0  200000 950000 0  250000 950000 0  300000 950000 0  350000 950000 0  400000 950000 0  450000 950000 0  500000 950000 0  550000 950000 0  600000 950000 0  650000 950000 0  700000 950000 0  750000 950000 0  800000 950000 0  850000 950000 0  900000 950000 0  950000 950000 0  1000000 950000 0  0 1000000 0  50000 1000000 0  100000 1000000 0  150000 1000000 0  200000 1000000 0  250000 1000000 0  300000 1000000 0  350000 1000000 0  400000 1000000 0  450000 1000000 0  500000 1000000 0  550000 1000000 0  600000 1000000 0  650000 1000000 0  700000 1000000 0  750000 1000000 0  800000 1000000 0  850000 1000000 0  900000 1000000 0  950000 1000000 0  1000000 1000000 0  0 1050000 0  50000 1050000 0  100000 1050000 0  150000 1050000 0  200000 1050000 0  250000 1050000 0  300000 1050000 0  350000 1050000 0  400000 1050000 0  450000 1050000 0  500000 1050000 0  550000 1050000 0  600000 1050000 0  650000 1050000 0  700000 1050000 0  750000 1050000 0  800000 1050000 0  850000 1050000 0  900000 1050000 0  950000 1050000 0  1000000 1050000 0  0 1100000 0  50000 1100000 0  100000 1100000 0  150000 1100000 0  200000 1100000 0  250000 1100000 0  300000 1100000 0  350000 1100000 0  400000 1100000 0  450000 1100000 0  500000 1100000 0  550000 1100000 0  600000 1100000 0  650000 1100000 0  700000 1100000 0  750000 1100000 0  800000 1100000 0  850000 1100000 0  900000 1100000 0  950000 1100000 0  1000000 1100000 0  0 1150000 0  50000 1150000 0  100000 1150000 0  150000 1150000 0  200000 1150000 0  250000 1150000 0  300000 1150000 0  350000 1150000 0  400000 1150000 0  450000 1150000 0  500000 1150000 0  550000 1150000 0  600000 1150000 0  650000 1150000 0  700000 1150000 0  750000 1150000 0  800000 1150000 0  850000 1150000 0  900000 1150000 0  950000 1150000 0  1000000 1150000 0  0 1200000 0  50000 1200000 0  100000 1200000 0  150000 1200000 0  200000 1200000 0  250000 1200000 0  300000 1200000 0  350000 1200000 0  400000 1200000 0  450000 1200000 0  500000 1200000 0  550000 1200000 0  600000 1200000 0  650000 1200000 0  700000 1200000 0  750000 1200000 0  800000 1200000 0  850000 1200000 0  900000 1200000 0  950000 1200000 0  1000000 1200000 0  0 1250000 0  50000 1250000 0  100000 1250000 0  150000 1250000 0  200000 1250000 0  250000 1250000 0  300000 1250000 0  350000 1250000 0  400000 1250000 0  450000 1250000 0  500000 1250000 0  550000 1250000 0  600000 1250000 0  650000 1250000 0  700000 1250000 0  750000 1250000 0  800000 1250000 0  850000 1250000 0  900000 1250000 0  950000 1250000 0  1000000 1250000 0  0 1300000 0  50000 1300000 0  100000 1300000 0  150000 1300000 0  200000 1300000 0  250000 1300000 0  300000 1300000 0  350000 1300000 0  400000 1300000 0  450000 1300000 0  500000 1300000 0  550000 1300000 0  600000 1300000 0  650000 1300000 0  700000 1300000 0  750000 1300000 0  800000 1300000 0  850000 1300000 0  900000 1300000 0  950000 1300000 0  1000000 1300000 0  0 1350000 0  50000 1350000 0  100000 1350000 0  150000 1350000 0  200000 1350000 0  250000 1350000 0  300000 1350000 0  350000 1350000 0  400000 1350000 0  450000 1350000 0  500000 1350000 0  550000 1350000 0  600000 1350000 0  650000 1350000 0  700000 135
[...]
<PointData  Vectors="f_15"> 
<DataArray  type="Float64"  Name="f_15"  NumberOfComponents="3" format="ascii">-3.3018836217751518e-10 2.6426622998551035e-10 0.0000000000000000e+00  -6.0368253012745977e-10 2.1178069128742700e-10 0.0000000000000000e+00  -1.0898529413383954e-09 1.9024174370014515e-10 0.0000000000000000e+00  -1.5597095054704792e-09 1.7162950344371499e-10 0.0000000000000000e+00  -1.9899826198560266e-09 1.4998073150063961e-10 0.0000000000000000e+00  -2.3681322371039528e-09 1.2463117927826987e-10 0.0000000000000000e+00  -2.6839640239206297e-09 9.5830407651353747e-11 0.0000000000000000e+00  -2.9292327607829874e-09 6.4143375014964099e-11 0.0000000000000000e+00  -3.0976338322397091e-09 3.0306948027038627e-11 0.0000000000000000e+00  -3.1849132962191532e-09 -4.8419110206172798e-12 0.0000000000000000e+00  -3.1889587586446794e-09 -4.0412553990148027e-11 0.0000000000000000e+00  -3.1098434655018651e-09 -7.5496633727936451e-11 0.0000000000000000e+00  -2.9498185505797225e-09 -1.0919998421415382e-10 0.0000000000000000e+00  -2.7132536204639527e-09 -1.4067365993212289e-10 0.0000000000000000e+00  -2.4065366463459669e-09 -1.6914831827268030e-10 0.0000000000000000e+00  -2.0379996669930589e-09 -1.9398593955876090e-10 0.0000000000000000e+00  -1.6182183409462579e-09 -2.1480102173210454e-10 0.0000000000000000e+00  -1.1622777441118736e-09 -2.3179698014130388e-10 0.0000000000000000e+00  -7.0045210910829763e-10 -2.4544283121949488e-10 0.0000000000000000e+00  -3.2351410297372781e-10 -2.3783512387517403e-10 0.0000000000000000e+00  -1.6474758076985338e-10 -1.5510613644634592e-10 0.0000000000000000e+00  -2.8160318374135563e-10 5.1623467344021729e-10 0.0000000000000000e+00  -4.9453216553783539e-10 4.7778346807449665e-10 0.0000000000000000e+00  -8.7324489916011036e-10 4.9719277728174212e-10 0.0000000000000000e+00  -1.3007128275891965e-09 4.7279429549984134e-10 0.0000000000000000e+00  -1.7087360524908172e-09 4.2979005356774805e-10 0.0000000000000000e+00  -2.0755513827907654e-09 3.7345844617765923e-10 0.0000000000000000e+00  -2.3895444262686512e-09 3.0652257334103659e-10 0.0000000000000000e+00  -2.6418542880095125e-09 2.3120347559236147e-10 0.0000000000000000e+00  -2.8256476323328082e-09 1.4967777120607089e-10 0.0000000000000000e+00  -2.9360926760407855e-09 6.4183592262325116e-11 0.0000000000000000e+00  -2.9703899587399445e-09 -2.2981716264383428e-11 0.0000000000000000e+00  -2.9278015940339278e-09 -1.0949712566341375e-10 0.0000000000000000e+00  -2.8096559908764728e-09 -1.9306283803085761e-10 0.0000000000000000e+00  -2.6193211609888963e-09 -2.7144510270942474e-10 0.0000000000000000e+00  -2.3621563323871647e-09 -3.4251309204768861e-10 0.0000000000000000e+00  -2.0454879904207422e-09 -4.0425336098136579e-10 0.0000000000000000e+00  -1.6787939253346328e-09 -4.5470939331887898e-10 0.0000000000000000e+00  -1.2748883944334873e-09 -4.9153513615210903e-10 0.0000000000000000e+00  -8.5548217919182833e-10 -5.0922849018221714e-10 0.0000000000000000e+00  -4.7440932526772456e-10 -4.8688110506627447e-10 0.0000000000000000e+00  -2.5519951096794529e-10 -3.0203488077696622e-10 0.0000000000000000e+00  -2.7553251097973737e-10 9.6326086310385126e-10 0.0000000000000000e+00  -5.0394401619155721e-10 8.5817097399558792e-10 0.0000000000000000e+00  -8.6283211050485314e-10 8.7584789000959327e-10 0.0000000000000000e+00  -1.2526776026268710e-09 8.3893692711205996e-10 0.0000000000000000e+00  -1.6281432501795891e-09 7.6779910554057010e-10 0.0000000000000000e+00  -1.9689043206188232e-09 6.7136123096225171e-10 0.0000000000000000e+00  -2.2619457918400965e-09 5.5511281732308111e-10 0.0000000000000000e+00  -2.4980909886009473e-09 4.2340503823209895e-10 0.0000000000000000e+00  -2.6705543386517419e-09 2.8030688925710463e-10 0.0000000000000000e+00  -2.7746057804399290e-09 1.2988893352748938e-10 0.0000000000000000e+00  -2.8075195594310585e-09 -2.3721018015906185e-11 0.0000000000000000e+00  -2.7685689851951526e-09 -1.7636839659074687e-10 0.0000000000000000e+00  -2.6590168848039477e-09 -3.2393080138843241e-10 0.0000000000000000e+00  -2.4820902524714251e-09 -4.6237830125600199e-10 0.0000000000000000e+00  -2.2429460825639091e-09 -5.8781192136794625e-10 0.0000000000000000e+00  -1.9486688501486250e-09 -6.9643918204107084e-10 0.0000000000000000e+00  -1.6084482674235943e-09 -7.8438021768641582e-10 0.0000000000000000e+00  -1.2344883768340702e-09 -8.4700449696906337e-10 0.0000000000000000e+00  -8.4573202741914560e-10 -8.7700400546402705e-10 0.0000000000000000e+00  -4.8585928410677360e-10 -8.6020883911252989e-10 0.0000000000000000e+00  -2.6940753276467910e-10 -6.4678824013238593e-10 0.0000000000000000e+00  -2.8363202649978718e-10 1.4033963131444500e-09 0.0000000000000000e+00  -5.0373688201073050e-10 1.2698653919718491e-09 0.0000000000000000e+00  -8.5734476864332330e-10 1.2674322626760116e-09 0.0000000000000000e+00  -1.2325514031891399e-09 1.2121770531244725e-09 0.0000000000000000e+00  -1.5894988680862449e-09 1.1117037756537078e-09 0.0000000000000000e+00  -1.9124617818883118e-09 9.7479999975357481e-10 0.0000000000000000e+00  -2.1902844086613558e-09 8.0865596888497978e-10 0.0000000000000000e+00  -2.4142484109904410e-09 6.1957080892951347e-10 0.0000000000000000e+00  -2.5777422034502416e-09 4.1356189471355571e-10 0.0000000000000000e+00  -2.6761505996139667e-09 1.9663102700207193e-10 0.0000000000000000e+00  -2.7068162107579793e-09 -2.5167483937491642e-11 0.0000000000000000e+00  -2.6690255935005049e-09 -2.4575791439805669e-10 0.0000000000000000e+00  -2.5639903338692047e-09 -4.5911533090740089e-10 0.0000000000000000e+00  -2.3948115359290713e-09 -6.5934460144466043e-10 0.0000000000000000e+00  -2.1664270599714979e-09 -8.4073863392580770e-10 0.0000000000000000e+00  -1.8855581348089716e-09 -9.9778137599940072e-10 0.0000000000000000e+00  -1.5607381448780101e-09 -1.1250467072357657e-09 0.0000000000000000e+00  -1.2028276023866222e-09 -1.2169604923770065e-09 0.0000000000000000e+00  -8.2807731443666563e-10 -1.2674089188784097e-09 0.0000000000000000e+00  -4.7711231945997929e-10 -1.2679145541718098e-09 0.0000000000000000e+00  -2.7160349989624338e-10 -1.0660873079191397e-09 0.0000000000000000e+00  -2.9921318477576190e-10 1.8343200668273957e-09 0.0000000000000000e+00  -5.0530160488241516e-10 1.6838277894680303e-09 0.0000000000000000e+00  -8.5609372679431495e-10 1.6590783743301455e-09 0.0000000000000000e+00  -1.2269574150494770e-09 1.5801407953271009e-09 0.0000000000000000e+00  -1.5764501123752772e-09 1.4486455549349866e-09 0.0000000000000000e+00  -1.8905809524548824e-09 1.2715096646699911e-09 0.0000000000000000e+00  -2.1598142263527918e-09 1.0565159985265723e-09 0.0000000000000000e+00  -2.3763549233123595e-09 8.1142000716475596e-10 0.0000000000000000e+00  -2.5340439829168076e-09 5.4398436269775868e-10 0.0000000000000000e+00  -2.6284894589735462e-09 2.6205732053679966e-10 0.0000000000000000e+00  -2.6571417584526459e-09 -2.6426200982435431e-11 0.0000000000000000e+00  -2.6193161974728561e-09 -3.1350839520006167e-10 0.0000000000000000e+00  -2.5161802537076381e-09 -5.9130803086255614e-10 0.0000000000000000e+00  -2.3507091644323696e-09 -8.5213179452645871e-10 0.0000000000000000e+00  -2.1276076811536405e-09 -1.0885798282757913e-09 0.0000000000000000e+00  -1.8532039400716081e-09 -1.2936354496330024e-09 0.0000000000000000e+00  -1.5353936535787549e-09 -1.4607530407129555e-09 0.0000000000000000e+00  -1.1841249187476469e-09 -1.5840243049911398e-09 0.0000000000000000e+00  -8.1497287825793316e-10 -1.6583573636176220e-09 0.0000000000000000e+00  -4.7034245740570450e-10 -1.6770976394993113e-09 0.0000000000000000e+00  -2.8112403697816727e-10 -1.4894325097108891e-09 0.0000000000000000e+00  -3.2094359848589298e-10 2.2613950494321204e-09 0.0000000000000000e+00  -5.1190019247260051e-10 2.0979726553483343e-09 0.0000000000000000e+00  -8.6173750561892126e-10 2.0521034479946998e-09 0.0000000000000000e+00  -1.2334625836871101e-09 1.9467976278382399e-09 0.0000000000000000e+00  -1.5823892679853096e-09 1.7821549488824257e-09 0.0000000000000000e+00  -1.8943511695300210e-09 1.5639543651191627e-09 0.0000000000000000e+00  -2.1605296930991098e-09 1.3001940181716039e-09 0.0000000000000000e+00  -2.3738321702091901e-09 9.9969850703549651e-10 0.0000000000000000e+00  -2.5285752388432204e-09 6.7173444449007796e-10 0.0000000000000000e+00  -2.6206508010181294e-09 3.2585476269549709e-10 0.0000000000000000e+00  -2.6476608452635988e-09 -2.8216984954286708e-11 0.0000000000000000e+00  -2.6089772832889174e-09 -3.8071413162832196e-10 0.0000000000000000e+00  -2.5057443573695942e-09 -7.2197194694831373e-10 0.0000000000000000e+00  -2.3408349187763543e-09 -1.0425853922177764e-09 0.0000000000000000e+00  -2.1187631999029684e-09 -1.3335769526133606e-09 0.0000000000000000e+00  -1.8455682802417459e-09 -1.5865827290284415e-09 0.0000000000000000e+00  -1.5287834553668496e-09 -1.7940888488909700e-09 0.0000000000000000e+00  -1.1781150836239244e-09 -1.9497720434318693e-09 0.0000000000000000e+00  -8.0973230076624694e-10 -2.0486653004019848e-09 0.0000000000000000e+00  -4.6919836828037512e-10 -2.0840031331356332e-09 0.0000000000000000e+00  -2.9708611793571866e-10 -1.9064833080119420e-09 0.0000000000000000e+00  -3.4836223619054105e-10 2.6895029320979553e-09 0.0000000000000000e+00  -5.2371084148247978e-10 2.5148104573809434e-09 0.0000000000000000e+00  -8.7450985680279650e-10 2.4491784788012133e-09 0.0000000000000000e+00  -1.2503271652452099e-09 2.3165008997044309e-09 0.0000000000000000e+00  -1.6028638506789058e-09 2.1169918692898766e-09 0.0000000000000000e+00  -1.9170345772335901e-09 1.8563639303514231e-09 0.0000000000000000e+00  -2.1840888299735584e-09 1.5430277076516127e-09 0.0000000000000000e+00  -2.3972839665669779e-09 1.1867766375891296e-09 0.0000000000000000e+00  -2.5512860652330366e-09 7.9823548947774897e-10 0.0000000000000000e+00  -2.6422492544956330e-09 3.8853991282353242e-10 0.0000000000000000e+00  -2.6679415724267800e-09 -3.0893312306287360e-11 0.0000000000000000e+00  -2.6278149163317409e-09 -4.4856807184731834e-10 0.0000000000000000e+00  -2.5230182743063165e-09 -8.5310851123742254e-10 0.0000000000000000e+00  -2.3563633901004060e-09 -1.2334681517450185e-09 0.0000000000000000e+00  -2.1322498205637914e-09 -1.5791581757567931e-09 0.0000000000000000e+00  -1.8565768787014106e-09 -1.8805096000505987e-09 0.0000000000000000e+00  -1.5367949573726368e-09 -2.1289917829964830e-09 0.0000000000000000e+00  -1.1828161688036559e-09 -2.3175884257538750e-09 0.0000000000000000e+00  -8.1192628799480803e-10 -2.4408331861638693e-09 0.0000000000000000e+00  -4.7331669500170930e-10 -2.4912085633548029e-09 0.0000000000000000e+00  -3.1865136304449815e-10 -2.3196981177490092e-09 0.0000000000000000e+00  -3.8129912134990595e-10 3.1223303153803515e-09 0.0000000000000000e+00  -5.3991359510621913e-10 2.9372080255446412e-09 0.0000000000000000e+00  -8.9300779336718052e-10 2.8527323319626533e-09 0.0000000000000000e+00  -1.2749067836571376e-09 2.6922194332487889e-09 0.0000000000000000e+00  -1.6334255499567439e-09 2.4565289159948963e-09 0.0000000000000000e+00  -1.9523281015392816e-09 2.1519880460686818e-09 0.0000000000000000e+00  -2.2226166315410913e-09 1.7877731686539306e-09 0.0000000000000000e+00  -2.4376525954370982e-09 1.3747395961762369e-09 0.0000000000000000e+00  -2.5923178162213912e-09 9.2484290482231406e-10 0.0000000000000000e+00  -2.6829791287933141e-09 4.5073412722448117e-10 0.0000000000000000e+00  -2.7075653043428836e-09 -3.4551640923427228e-11 0.0000000000000000e+00  -2.6656214488430810e-09 -5.1786007146170653e-10 0.0000000000000000e+00  -2.5583241946208619e-09 -9.8616632483211086e-10 0.0000000000000000e+00  -2.3884614416545391e-09 -1.4268290949341398e-09 0.0000000000000000e+00  -2.1603848177952943e-09 -1.8278672661501706e-09 0.0000000000000000e+00  -1.8799707536248269e-09 -2.1782743031537141e-09 0.0000000000000000e+00  -1.5547664105309969e-09 -2.4683790162245846e-09 0.0000000000000000e+00  -1.1951096613359653e-09 -2.6902203996278142e-09 0.0000000000000000e+00  -8.1960858083478737e-10 -2.8375018307161530e-09 0.0000000000000000e+00  -4.8149312323778427e-10 -2.9017871519542767e-09 0.0000000000000000e+00  -3.4551702949973550e-10 -2.7331316306604881e-09 0.0000000000000000e+00  -4.1974745241722574e-10 3.5620450041967279e-09 0.0000000000000000e+00  -5.5925061732989777e-10 3.3672111036219112e-09 0.0000000000000000e+00  -9.1489901895727069e-10 3.2643369683459575e-09 0.0000000000000000e+00  -1.3036076215595429e-09 3.0755583976741505e-09 0.0000000000000000e+00  -1.6689625670278212e-09 2.8025387850818499e-09 0.0000000000000000e+00  -1.9935130332124880e-09 2.4526039672938105e-09 0.0000000000000000e+00  -2.2679152182955319e-09 2.0360066870207244e-09 0.0000000000000000e+00  -2.4855301505921491e-09 1.5648260118861075e-09 0.0000000000000000e+00  -2.6413874996898508e-09 1.0523955477361765e-09 0.0000000000000000e+00  -2.7320400710325651e-09 5.1286130262685672e-10 0.0000000000000000e+00  -2.7555758947984261e-09 -3.9176551592879753e-11 0.0000000000000000e+00  -2.7116408958917358e-09 -5.8896838534545195e-10 0.0000000000000000e+00  -2.6014484990098903e-09 -1.1218954933075330e-09 0.0000000000000000e+00  -2.4277758914140286e-09 -1.6237532172868335e-09 0.0000000000000000e+00  -2.1949533516681234e-09 -2.0810596146419692e-09 0.0000000000000000e+00  -1.9088841809900960e-09 -2.4814050122149315e-09 0.0000000000000000e+00  -1.5772847031239419e-09 -2.8138428434648761e-09 0.0000000000000000e+00  -1.2109980650572138e-09 -3.0692756960406068e-09 0.0000000000000000e+00  -8.3006101332378135e-10 -3.2403991627426076e-09 0.0000000000000000e+00  -4.9222181517815547e-10 -3.3178312464449422e-09 0.0000000000000000e+00  -3.7759862459976648e-10 -3.1498684548310585e-09 0.0000000000000000e+00  -4.6380545769929609e-10 4.0090871486469817e-09 0.0000000000000000e+00  -5.8016078573197396e-10 3.8055251125088869e-09 0.0000000000000000e+00  -9.3716017528042783e-10 3.6843141737697249e-09 0.0000000000000000e+00  -1.3319170498853449e-09 3.4667038911857533e-09 0.0000000000000000e+00  -1.7033940675395177e-09 3.1552339327381602e-09 0.0000000000000000e+00  -2.0329169001454369e-09 2.7584694933546900e-09 0.0000000000000000e+00  -2.3108240776677073e-09 2.2879848573440483e-09 0.0000000000000000e+00  -2.5304947001286819e-09 1.7572498044432847e-09 0.0000000000000000e+00  -2.6871267034935284e-09 1.1810502510839357e-09 0.0000000000000000e+00  -2.7774845955129753e-09 5.7502658686985730e-10 0.0000000000000000e+00  -2.7998383128105792e-09 -4.4704337058978573e-11 0.0000000000000000e+00  -2.7539436573771719e-09 -6.6186610102983429e-10 0.0000000000000000e+00  -2.6410413500912027e-09 -1.2603087489916784e-09 0.0000000000000000e+00  -2.4638728647004476e-09 -1.8242976816383636e-09 0.0000000000000000e+00  -2.2267156680740620e-09 -2.3388354472183826e-09 0.0000000000000000e+00  -1.9354717502407851e-09 -2.7900353847842333e-09 0.0000000000000000e+00  -1.5980067347329989e-09 -3.1655458481683893e-09 0.0000000000000000e+00  -1.2256640106736294e-09 -3.4549756474502963e-09 0.0000000000000000e+00  -8.3998426398197176e-10 -3.6498894721938381e-09 0.0000000000000000e+00  -5.0376160698637047e-10 -3.7399601485385948e-09 0.0000000000000000e+00  -4.1491484864953233e-10 -3.5714280106871025e-09 0.0000000000000000e+00  -5.1364691574263106e-10 4.4619179098733982e-09 0.0000000000000000e+00  -6.0077838495908807e-10 4.2511555716302431e-09 0.0000000000000000e+00  -9.5609057964199835e-10 4.1113765672147987e-09 0.0000000000000000e+00  -1.3543236924857400e-09 3.8642097983754791e-09 0.0000000000000000e+00  -1.7294059422861833e-09 3.5131619436590052e-09 0.0000000000000000e+00  -2.0614640215645089e-09 3.0682359893171813e-09 0.0000000000000000e+00  -2.3406363971810355e-09 2.5425373990423409e-09 0.0000000000000000e+00  -2.5604460794656633e-09 1.9510812556505306e-09 0.0000000000000000e+00  -2.7163751544772501e-09 1.3101764710088393e-09 0.0000000000000000e+00  -2.8054948431600504e-09 6.3694711559714482e-10 0.0000000000000000e+00  -2.8263181518558327e-09 -5.1043754564234127e-11 0.0000000000000000e+00  -2.7787272599367875e-09 -7.3609204261643336e-10 0.0000000000000000e+00  -2.6639585287511693e-09 -1.4006104053333813e-09 0.0000000000000000e+00  -2.4846438506106981e-09 -2.0273917834949080e-09 0.0000000000000000e+00  -2.2449056657302713e-09 -2.5999212747208884e-09 0.0000000000000000e+00  -1.9505318079910218e-09 -3.1027644635409283e-09 0.0000000000000000e+00  -1.6094321408142974e-09 -3.5220347818032859e-09 0.0000000000000000e+00  -1.2333801846110893e-09 -3.8458912397248760e-09 0.0000000000000000e+00  -8.4547476319899393e-10 -4.0646422024091607e-09 0.0000000000000000e+00  -5.1409975973372278e-10 -4.1670056780915304e-09 0.0000000000000000e+00  -4.5754448260128254e-10 -3.9975146071325977e-09 0.0000000000000000e+00  -5.6950627834655374e-10 4.9166851837603088e-09 0.0000000000000000e+00  -6.1887523475802931e-10 4.7010420583630892e-09 0.0000000000000000e+00  -9.6721378328508897e-10 4.5422430937675679e-09 0.0000000000000000e+00  -1.3641357694748172e-09 4.2646669866302146e-09 0.0000000000000000e+00  -1.7381365049735211e-09 3.8729429793510715e-09 0.0000000000000000e+00  -2.0682094917588745e-09 3.3787295771558980e-09 0.0000000000000000e+00  -2.3444968690428605e-09 2.7968731176118435e-09 0.0000000000000000e+00  -2.5608998839796739e-09 2.1440796796183162e-09 0.0000000000000000e+00  -2.7134063714124967e-09 1.4382305223434535e-09 0.0000000000000000e+00  -2.7995731116486571e-09 6.9788415292553667e-10 0.0000000000000000e+00  -2.8182677949517975e-09 -5.8075691571838335e-11 0.0000000000000000e+00  -2.7695274113958378e-09 -8.1068091497611400e-10 0.0000000000000000e+00  -2.6545256835763908e-09 -1.5410639661226229e-09 0.0000000000000000e+00  -2.4756503499678669e-09 -2.2306538977899975e-09 0.0000000000000000e+00  -2.2366807171818470e-09 -2.8614473693741993e-09 0.0000000000000000e+00  -1.9430798466074980e-09 -3.4163994661996364e-09 0.0000000000000000e+00  -1.6026043206554704e-09 -3.8799460970193986e-09 0.0000000000000000e+00  -1.2273192801734663e-09 -4.2386113579779412e-09 0.0000000000000000e+00  -8.4190655345031548e-10 -4.4812823851062619e-09 0.0000000000000000e+00  -5.2087870800971825e-10 -4.5956842320431320e-09 0.0000000000000000e+00  -5.0560508081547981e-10 -4.4257590886696046e-09 0.0000000000000000e+00  -6.3167351528430859e-10 5.3667884774431625e-09 0.0000000000000000e+00  -6.3177381533600182e-10 5.1496275807393370e-09 0.0000000000000000e+00  -9.6511300198549001e-10 4.9711883397253017e-09 0.0000000000000000e+00  -1.3532182081773337e-09 4.6622653312843149e-09 0.0000000000000000e+00  -1.7187866024227042e-09 4.2288671931103035e-09 0.0000000000000000e+00  -2.0398051542847909e-09 3.6845905720123479e-09 0.0000000000000000e+00  -2.3067276308319112e-09 3.0462662175749808e-09 0.0000000000000000e+00  -2.5141954590406975e-09 2.3324382617723213e-09 0.0000000000000000e+00  -2.6590502909191702e-09 1.5625758074935366e-09 0.0000000000000000e+00  -2.7396163242591884e-09 7.5655470035359219e-10 0.0000000000000000e+00  -2.7552911310573016e-09 -6.5640591513692270e-11 0.0000000000000000e+00  -2.7063105857364728e-09 -8.8404946930857273e-10 0.0000000000000000e+00  -2.5936939681648817e-09 -1.6787860330146681e-09 0.0000000000000000e+00  -2.4193732831491901e-09 -2.4301089456507382e-09 0.0000000000000000e+00  -2.1864882915796478e-09 -3.1186072747802047e-09 0.0000000000000000e+00  -1.8998448711038584e-09 -3.7255743580137023e-09 0.0000000000000000e+00  -1.5667347561864446e-09 -4.2335975924159904e-09 0.0000000000000000e+00  -1.1992903749622264e-09 -4.6273210736688373e-09 0.0000000000000000e+00  -8.2375825563342838e-10 -4.8939721680550434e-09 0.0000000000000000e+00  -5.2130112568593621e-10 -5.0201986340351165e-09 0.0000000000000000e+00  -5.5924038342685218e-10 -4.8513793799389247e-09 0.0000000000000000e+00  -7.0049856492580958e-10 5.8023270599001025e-09 0.0000000000000000e+00  -6.3624148797792275e-10 5.5883331934813565e-09 0.0000000000000000e+00  -9.4321889333538806e-10 5.3894950244602495e-09 0.0000000000000000e+00  -1.3116582769744155e-09 5.0482372901800926e-09 0.0000000000000000e+00  -1.6581422482579414e-09 4.5723508438948153e-09 0.0000000000000000e+00  -1.9598657