<?xml version="1.0"?>
<VTKFile type="UnstructuredGrid"  version="0.1"  >
<UnstructuredGrid>
<Piece  NumberOfPoints="651" NumberOfCells="1200">
<Points>
<DataArray  type="Float64"  NumberOfComponents="3"  format="ascii">0 0 0  50000 0 0  100000 0 0  150000 0 0  200000 0 0  250000 0 0  300000 0 0  350000 0 0  400000 0 0  450000 0 0  500000 0 0  550000 0 0  600000 0 0  650000 0 0  700000 0 0  750000 0 0  800000 0 0  850000 0 0  900000 0 0  950000 0 0  1000000 0 0  0 50000 0  50000 50000 0  100000 50000 0  150000 50000 0  200000 50000 0  250000 50000 0  300000 50000 0  350000 50000 0  400000 50000 0  450000 50000 0  500000 50000 0  550000 50000 0  600000 50000 0  650000 50000 0  700000 50000 0  750000 50000 0  800000 50000 0  850000 50000 0  900000 50000 0  950000 50000 0  1000000 50000 0  0 100000 0  50000 100000 0  100000 100000 0  150000 100000 0  200000 100000 0  250000 100000 0  300000 100000 0  350000 100000 0  400000 100000 0  450000 100000 0  500000 100000 0  550000 100000 0  600000 100000 0  650000 100000 0  700000 100000 0  750000 100000 0  800000 100000 0  850000 100000 0  900000 100000 0  950000 100000 0  1000000 100000 0  0 150000 0  50000 150000 0  100000 150000 0  150000 150000 0  200000 150000 0  250000 150000 0  300000 150000 0  350000 150000 0  400000 150000 0  450000 150000 0  500000 150000 0  550000 150000 0  600000 150000 0  650000 150000 0  700000 150000 0  750000 150000 0  800000 150000 0  850000 150000 0  900000 150000 0  950000 150000 0  1000000 150000 0  0 200000 0  50000 200000 0  100000 200000 0  150000 200000 0  200000 200000 0  250000 200000 0  300000 200000 0  350000 200000 0  400000 200000 0  450000 200000 0  500000 200000 0  550000 200000 0  600000 200000 0  650000 200000 0  700000 200000 0  750000 200000 0  800000 200000 0  850000 200000 0  900000 200000 0  950000 200000 0  1000000 200000 0  0 250000 0  50000 250000 0  100000 250000 0  150000 250000 0  200000 250000 0  250000 250000 0  300000 250000 0  350000 250000 0  400000 250000 0  450000 250000 0  500000 250000 0  550000 250000 0  600000 250000 0  650000 250000 0  700000 250000 0  750000 250000 0  800000 250000 0  850000 250000 0  900000 250000 0  950000 250000 0  1000000 250000 0  0 300000 0  50000 300000 0  100000 300000 0  150000 300000 0  200000 300000 0  250000 300000 0  300000 300000 0  350000 300000 0  400000 300000 0  450000 300000 0  500000 300000 0  550000 300000 0  600000 300000 0  650000 300000 0  700000 300000 0  750000 300000 0  800000 300000 0  850000 300000 0  900000 300000 0  950000 300000 0  1000000 300000 0  0 350000 0  50000 350000 0  100000 350000 0  150000 350000 0  200000 350000 0  250000 350000 0  300000 350000 0  350000 350000 0  400000 350000 0  450000 350000 0  500000 350000 0  550000 350000 0  600000 350000 0  650000 350000 0  700000 350000 0  750000 350000 0  800000 350000 0  850000 350000 0  900000 350000 0  950000 350000 0  1000000 350000 0  0 400000 0  50000 400000 0  100000 400000 0  150000 400000 0  200000 400000 0  250000 400000 0  300000 400000 0  350000 400000 0  400000 400000 0  450000 400000 0  500000 400000 0  550000 400000 0  600000 400000 0  650000 400000 0  700000 400000 0  750000 400000 0  800000 400000 0  850000 400000 0  900000 400000 0  950000 400000 0  1000000 400000 0  0 450000 0  50000 450000 0  100000 450000 0  150000 450000 0  200000 450000 0  250000 450000 0  300000 450000 0  350000 450000 0  400000 450000 0  450000 450000 0  500000 450000 0  550000 450000 0  600000 450000 0  650000 450000 0  700000 450000 0  750000 450000 0  800000 450000 0  850000 450000 0  900000 450000 0  950000 450000 0  1000000 450000 0  0 500000 0  50000 500000 0  100000 500000 0  150000 500000 0  200000 500000 0  250000 500000 0  300000 500000 0  350000 500000 0  400000 500000 0  450000 500000 0  500000 500000 0  550000 500000 0  600000 500000 0  650000 500000 0  700000 500000 0  750000 500000 0  800000 500000 0  850000 500000 0  900000 500000 0  950000 500000 0  1000000 500000 0  0 550000 0  50000 550000 0  100000 550000 0  150000 550000 0  200000 550000 0  250000 550000 0  300000 550000 0  350000 550000 0  400000 550000 0  450000 550000 0  500000 550000 0  550000 550000 0  600000 550000 0  650000 550000 0  700000 550000 0  750000 550000 0  800000 550000 0  850000 550000 0  900000 550000 0  950000 550000 0  1000000 550000 0  0 600000 0  50000 600000 0  100000 600000 0  150000 600000 0  200000 600000 0  250000 600000 0  300000 600000 0  350000 600000 0  400000 600000 0  450000 600000 0  500000 600000 0  550000 600000 0  600000 600000 0  650000 600000 0  700000 600000 0  750000 600000 0  800000 600000 0  850000 600000 0  900000 600000 0  950000 600000 0  1000000 600000 0  0 650000 0  50000 650000 0  100000 650000 0  150000 650000 0  200000 650000 0  250000 650000 0  300000 650000 0  350000 650000 0  400000 650000 0  450000 650000 0  500000 650000 0  550000 650000 0  600000 650000 0  650000 650000 0  700000 650000 0  750000 650000 0  800000 650000 0  850000 650000 0  900000 650000 0  950000 650000 0  1000000 650000 0  0 700000 0  50000 700000 0  100000 700000 0  150000 700000 0  200000 700000 0  250000 700000 0  300000 700000 0  350000 700000 0  400000 700000 0  450000 700000 0  500000 700000 0  550000 700000 0  600000 700000 0  650000 700000 0  700000 700000 0  750000 700000 0  800000 700000 0  850000 700000 0  900000 700000 0  950000 700000 0  1000000 700000 0  0 750000 0  50000 750000 0  100000 750000 0  150000 750000 0  200000 750000 0  250000 750000 0  300000 750000 0  350000 750000 0  400000 750000 0  450000 750000 0  500000 750000 0  550000 750000 0  600000 750000 0  650000 750000 0  700000 750000 0  750000 750000 0  800000 750000 0  850000 750000 0  900000 750000 0  950000 750000 0  1000000 750000 0  0 800000 0  50000 800000 0  100000 800000 0  150000 800000 0  200000 800000 0  250000 800000 0  300000 800000 0  350000 800000 0  400000 800000 0  450000 800000 0  500000 800000 0  550000 800000 0  600000 800000 0  650000 800000 0  700000 800000 0  750000 800000 0  800000 800000 0  850000 800000 0  900000 800000 0  950000 800000 0  1000000 800000 0  0 850000 0  50000 850000 0  100000 850000 0  150000 850000 0  200000 850000 0  250000 850000 0  300000 850000 0  350000 850000 0  400000 850000 0  450000 850000 0  500000 850000 0  550000 850000 0  600000 850000 0  650000 850000 0  700000 850000 0  750000 850000 0  800000 850000 0  850000 850000 0  900000 850000 0  950000 850000 0  1000000 850000 0  0 900000 0  50000 900000 0  100000 900000 0  150000 900000 0  200000 900000 0  250000 900000 0  300000 900000 0  350000 900000 0  400000 900000 0  450000 900000 0  500000 900000 0  550000 900000 0  600000 900000 0  650000 900000 0  700000 900000 0  750000 900000 0  800000 900000 0  850000 900000 0  900000 900000 0  950000 900000 0  1000000 900000 0  0 950000 0  50000 950000 0  100000 950000 0  150000 950000 0  200000 950000 0  250000 950000 0  300000 950000 0  350000 950000 0  400000 950000 0  450000 950000 0  500000 950000 0  550000 950000 0  600000 950000 0  650000 950000 0  700000 950000 0  750000 950000 0  800000 950000 0  850000 950000 0  900000 950000 0  950000 950000 0  1000000 950000 0  0 1000000 0  50000 1000000 0  100000 1000000 0  150000 1000000 0  200000 1000000 0  250000 1000000 0  300000 1000000 0  350000 1000000 0  400000 1000000 0  450000 1000000 0  500000 1000000 0  550000 1000000 0  600000 1000000 0  650000 1000000 0  700000 1000000 0  750000 1000000 0  800000 1000000 0  850000 1000000 0  900000 1000000 0  950000 1000000 0  1000000 1000000 0  0 1050000 0  50000 1050000 0  100000 1050000 0  150000 1050000 0  200000 1050000 0  250000 1050000 0  300000 1050000 0  350000 1050000 0  400000 1050000 0  450000 1050000 0  500000 1050000 0  550000 1050000 0  600000 1050000 0  650000 1050000 0  700000 1050000 0  750000 1050000 0  800000 1050000 0  850000 1050000 0  900000 1050000 0  950000 1050000 0  1000000 1050000 0  0 1100000 0  50000 1100000 0  100000 1100000 0  150000 1100000 0  200000 1100000 0  250000 1100000 0  300000 1100000 0  350000 1100000 0  400000 1100000 0  450000 1100000 0  500000 1100000 0  550000 1100000 0  600000 1100000 0  650000 1100000 0  700000 1100000 0  750000 1100000 0  800000 1100000 0  850000 1100000 0  900000 1100000 0  950000 1100000 0  1000000 1100000 0  0 1150000 0  50000 1150000 0  100000 1150000 0  150000 1150000 0  200000 1150000 0  250000 1150000 0  300000 1150000 0  350000 1150000 0  400000 1150000 0  450000 1150000 0  500000 1150000 0  550000 1150000 0  600000 1150000 0  650000 1150000 0  700000 1150000 0  750000 1150000 0  800000 1150000 0  850000 1150000 0  900000 1150000 0  950000 1150000 0  1000000 1150000 0  0 1200000 0  50000 1200000 0  100000 1200000 0  150000 1200000 0  200000 1200000 0  250000 1200000 0  300000 1200000 0  350000 1200000 0  400000 1200000 0  450000 1200000 0  500000 1200000 0  550000 1200000 0  600000 1200000 0  650000 1200000 0  700000 1200000 0  750000 1200000 0  800000 1200000 0  850000 1200000 0  900000 1200000 0  950000 1200000 0  1000000 1200000 0  0 1250000 0  50000 1250000 0  100000 1250000 0  150000 1250000 0  200000 1250000 0  250000 1250000 0  300000 1250000 0  350000 1250000 0  400000 1250000 0  450000 1250000 0  500000 1250000 0  550000 1250000 0  600000 1250000 0  650000 1250000 0  700000 1250000 0  750000 1250000 0  800000 1250000 0  850000 1250000 0  900000 1250000 0  950000 1250000 0  1000000 1250000 0  0 1300000 0  50000 1300000 0  100000 1300000 0  150000 1300000 0  200000 1300000 0  250000 1300000 0  300000 1300000 0  350000 1300000 0  400000 1300000 0  450000 1300000 0  500000 1300000 0  550000 1300000 0  600000 1300000 0  650000 1300000 0  700000 1300000 0  750000 1300000 0  800000 1300000 0  850000 1300000 0  900000 1300000 0  950000 1300000 0  1000000 1300000 0  0 1350000 0  50000 1350000 0  100000 1350000 0  150000 1350000 0  200000 1350000 0  250000 1350000 0  300000 1350000 0  350000 1350000 0  400000 1350000 0  450000 1350000 0  500000 1350000 0  550000 1350000 0  600000 1350000 0  650000 1350000 0  700000 135
[...]
<PointData  Vectors="f_15"> 
<DataArray  type="Float64"  Name="f_15"  NumberOfComponents="3" format="ascii">-3.1574230172453793e-10 3.1160320785238164e-10 0.0000000000000000e+00  -5.8824573184871901e-10 2.5791910743196029e-10 0.0000000000000000e+00  -1.0732731978285028e-09 2.3420007131045559e-10 0.0000000000000000e+00  -1.5421595743380477e-09 2.1338631017833577e-10 0.0000000000000000e+00  -1.9715122027037976e-09 1.8964464956042155e-10 0.0000000000000000e+00  -2.3487691607804146e-09 1.6227626809163737e-10 0.0000000000000000e+00  -2.6637308525304738e-09 1.3151227305783560e-10 0.0000000000000000e+00  -2.9081527295424964e-09 9.7912657166981881e-11 0.0000000000000000e+00  -3.0757320726435464e-09 6.2214822299632944e-11 0.0000000000000000e+00  -3.1622163659324312e-09 2.5259239838376414e-11 0.0000000000000000e+00  -3.1654935179164908e-09 -1.2057437084323033e-11 0.0000000000000000e+00  -3.0856354646081001e-09 -4.8818096030477391e-11 0.0000000000000000e+00  -2.9248897184233460e-09 -8.4116424476442985e-11 0.0000000000000000e+00  -2.6876187837485210e-09 -1.1708713289882449e-10 0.0000000000000000e+00  -2.3801981494749863e-09 -1.4693941895092347e-10 0.0000000000000000e+00  -2.0109389941452869e-09 -1.7300766467750722e-10 0.0000000000000000e+00  -1.5903827698693319e-09 -1.9487106858043751e-10 0.0000000000000000e+00  -1.1335600567453777e-09 -2.1268599606022581e-10 0.0000000000000000e+00  -6.7069003797000692e-10 -2.2685978348380066e-10 0.0000000000000000e+00  -2.9266351853247201e-10 -2.1949569423011676e-10 0.0000000000000000e+00  -1.3336479732202771e-10 -1.3621834428322622e-10 0.0000000000000000e+00  -2.6856828393977727e-10 5.6309109218019411e-10 0.0000000000000000e+00  -4.9650583837602903e-10 4.9227367941611632e-10 0.0000000000000000e+00  -8.8461728554483998e-10 5.0162005950419128e-10 0.0000000000000000e+00  -1.3068839525646021e-09 4.7808741183631386e-10 0.0000000000000000e+00  -1.7093764728865333e-09 4.3560306735269851e-10 0.0000000000000000e+00  -2.0723162856908212e-09 3.7947291783932660e-10 0.0000000000000000e+00  -2.3834860302349560e-09 3.1255220022352690e-10 0.0000000000000000e+00  -2.6336605509703643e-09 2.3714327641231611e-10 0.0000000000000000e+00  -2.8158297637590019e-09 1.5547628525037822e-10 0.0000000000000000e+00  -2.9250545474225732e-09 6.9821062729426156e-11 0.0000000000000000e+00  -2.9584678105196278e-09 -1.7505096186636858e-11 0.0000000000000000e+00  -2.9152922223819631e-09 -1.0416563160423779e-10 0.0000000000000000e+00  -2.7968391066352605e-09 -1.8784476211961612e-10 0.0000000000000000e+00  -2.6064811767508761e-09 -2.6628749737695248e-10 0.0000000000000000e+00  -2.3496095657999285e-09 -3.3732879211455013e-10 0.0000000000000000e+00  -2.0336240981022482e-09 -3.9889166220473438e-10 0.0000000000000000e+00  -1.6681408759936932e-09 -4.4889014050434090e-10 0.0000000000000000e+00  -1.2661498641217860e-09 -4.8472299297219977e-10 0.0000000000000000e+00  -8.4918016376009273e-10 -5.0044698705124639e-10 0.0000000000000000e+00  -4.6929911951307448e-10 -4.7295615044540905e-10 0.0000000000000000e+00  -2.2422334353613375e-10 -2.8401085812966134e-10 0.0000000000000000e+00  -2.6470742297149973e-10 1.0086960605204073e-09 0.0000000000000000e+00  -5.0737916659737175e-10 8.6758760783021582e-10 0.0000000000000000e+00  -8.7915874469429626e-10 8.6833801057704135e-10 0.0000000000000000e+00  -1.2700748524662541e-09 8.3122208691975430e-10 0.0000000000000000e+00  -1.6421291239741173e-09 7.6164700081588818e-10 0.0000000000000000e+00  -1.9786290835678350e-09 6.6669488822919280e-10 0.0000000000000000e+00  -2.2678529725594569e-09 5.5164568257136087e-10 0.0000000000000000e+00  -2.5008212118438185e-09 4.2088325132792727e-10 0.0000000000000000e+00  -2.6707039557067876e-09 2.7855141065669653e-10 0.0000000000000000e+00  -2.7727003501397260e-09 1.2878563114081338e-10 0.0000000000000000e+00  -2.8040227609534223e-09 -2.4236898760634163e-11 0.0000000000000000e+00  -2.7638991225672011e-09 -1.7632102297107959e-10 0.0000000000000000e+00  -2.6535663764779873e-09 -3.2330448148664158e-10 0.0000000000000000e+00  -2.4762477464307290e-09 -4.6110911359355939e-10 0.0000000000000000e+00  -2.2371221711162271e-09 -5.8576639689543971e-10 0.0000000000000000e+00  -1.9433237594735819e-09 -6.9337233037776893e-10 0.0000000000000000e+00  -1.6041035928884836e-09 -7.7986527531428434e-10 0.0000000000000000e+00  -1.2316460442849117e-09 -8.4034830318608287e-10 0.0000000000000000e+00  -8.4439939053561234e-10 -8.6719671193641698e-10 0.0000000000000000e+00  -4.8312065802323771e-10 -8.4682759595702708e-10 0.0000000000000000e+00  -2.3888555744497279e-10 -6.3062896771439263e-10 0.0000000000000000e+00  -2.7508032677710329e-10 1.4472869910266863e-09 0.0000000000000000e+00  -5.0422646571669099e-10 1.2870462264496002e-09 0.0000000000000000e+00  -8.6920792114385263e-10 1.2620466823062444e-09 0.0000000000000000e+00  -1.2489859275548559e-09 1.2017597413949963e-09 0.0000000000000000e+00  -1.6062359347780610e-09 1.1012703553998724e-09 0.0000000000000000e+00  -1.9272489303254169e-09 9.6565708294750568e-10 0.0000000000000000e+00  -2.2023698451068756e-09 8.0102584878051274e-10 0.0000000000000000e+00  -2.4236114004967254e-09 6.1336837342714380e-10 0.0000000000000000e+00  -2.5846579329830802e-09 4.0863922716943078e-10 0.0000000000000000e+00  -2.6809964158452851e-09 1.9285572718845660e-10 0.0000000000000000e+00  -2.7099948124637465e-09 -2.7889835829496016e-11 0.0000000000000000e+00  -2.6709373476249418e-09 -2.4747669601844619e-10 0.0000000000000000e+00  -2.5650267073689736e-09 -4.5982840350266840e-10 0.0000000000000000e+00  -2.3953575671496849e-09 -6.5898654037470848e-10 0.0000000000000000e+00  -2.1668648291568957e-09 -8.3916069090243016e-10 0.0000000000000000e+00  -1.8862596253376216e-09 -9.9472384661568735e-10 0.0000000000000000e+00  -1.5620214793211094e-09 -1.1201174668728068e-09 0.0000000000000000e+00  -1.2048072038856311e-09 -1.2096716749663622e-09 0.0000000000000000e+00  -8.3011353531200236e-10 -1.2574122743046670e-09 0.0000000000000000e+00  -4.7570423732753980e-10 -1.2563468947347753e-09 0.0000000000000000e+00  -2.4187605722156166e-10 -1.0521882439666593e-09 0.0000000000000000e+00  -2.9296369978713001e-10 1.8766021469672182e-09 0.0000000000000000e+00  -5.0435916457476817e-10 1.7070443235945511e-09 0.0000000000000000e+00  -8.6412055702125988e-10 1.6590672191356241e-09 0.0000000000000000e+00  -1.2399496604005564e-09 1.5714851422622614e-09 0.0000000000000000e+00  -1.5917992412951001e-09 1.4374166714225863e-09 0.0000000000000000e+00  -1.9061030019479483e-09 1.2603425238360911e-09 0.0000000000000000e+00  -2.1742333987620767e-09 1.0464490338282254e-09 0.0000000000000000e+00  -2.3891149570116628e-09 8.0279858433314194e-10 0.0000000000000000e+00  -2.5450249716869112e-09 5.3687039431441402e-10 0.0000000000000000e+00  -2.6378069710767223e-09 2.5641112888222889e-10 0.0000000000000000e+00  -2.6650280341350064e-09 -3.0664940608804164e-11 0.0000000000000000e+00  -2.6260549098945740e-09 -3.1638240225389898e-10 0.0000000000000000e+00  -2.5220709709958061e-09 -5.9282078977198325e-10 0.0000000000000000e+00  -2.3560453396233452e-09 -8.5223150381644056e-10 0.0000000000000000e+00  -2.1326557477885627e-09 -1.0871463257362960e-09 0.0000000000000000e+00  -1.8581701713153352e-09 -1.2904762828880462e-09 0.0000000000000000e+00  -1.5403593512360149e-09 -1.4556302776161046e-09 0.0000000000000000e+00  -1.1889052599302544e-09 -1.5767619949592787e-09 0.0000000000000000e+00  -8.1867090310581784e-10 -1.6491132849658560e-09 0.0000000000000000e+00  -4.6972227072737206e-10 -1.6675803540332657e-09 0.0000000000000000e+00  -2.5241107710435765e-10 -1.4778991553128615e-09 0.0000000000000000e+00  -3.1707971875864457e-10 2.3020103882612050e-09 0.0000000000000000e+00  -5.1029829367080083e-10 2.1247059185941307e-09 0.0000000000000000e+00  -8.6705952124622569e-10 2.0570842414540586e-09 0.0000000000000000e+00  -1.2430884603038154e-09 1.9414545221304066e-09 0.0000000000000000e+00  -1.5950391654248518e-09 1.7721827388574220e-09 0.0000000000000000e+00  -1.9084614382512960e-09 1.5525685432994777e-09 0.0000000000000000e+00  -2.1748616525948075e-09 1.2890753177326507e-09 0.0000000000000000e+00  -2.3876130742573737e-09 9.8966339623138862e-10 0.0000000000000000e+00  -2.5414194649625052e-09 6.6314155680782220e-10 0.0000000000000000e+00  -2.6324366806867739e-09 3.1883508456483629e-10 0.0000000000000000e+00  -2.6584270745447055e-09 -3.3634462937568991e-11 0.0000000000000000e+00  -2.6188489468989185e-09 -3.8453377265062795e-10 0.0000000000000000e+00  -2.5148816721222250e-09 -7.2419286255066754e-10 0.0000000000000000e+00  -2.3493945751507782e-09 -1.0431798729669558e-09 0.0000000000000000e+00  -2.1268624382477659e-09 -1.3324827447921629e-09 0.0000000000000000e+00  -1.8532425530215201e-09 -1.5837150473687638e-09 0.0000000000000000e+00  -1.5359282769299494e-09 -1.7893886540335284e-09 0.0000000000000000e+00  -1.1843860194308790e-09 -1.9433197805362547e-09 0.0000000000000000e+00  -8.1419990943239699e-10 -2.0408979608262693e-09 0.0000000000000000e+00  -4.6904160954390947e-10 -2.0769267799523659e-09 0.0000000000000000e+00  -2.6957151397528474e-10 -1.8973394857084112e-09 0.0000000000000000e+00  -3.4700389623366608e-10 2.7283748154285579e-09 0.0000000000000000e+00  -5.2184417459189940e-10 2.5435224906236971e-09 0.0000000000000000e+00  -8.7791412772457256e-10 2.4579343338275174e-09 0.0000000000000000e+00  -1.2571236199170577e-09 2.3145612671941541e-09 0.0000000000000000e+00  -1.6126248256158327e-09 2.1092000419082737e-09 0.0000000000000000e+00  -1.9288351384714620e-09 1.8459437009679164e-09 0.0000000000000000e+00  -2.1969748382875762e-09 1.5319804153704485e-09 0.0000000000000000e+00  -2.4105095232102331e-09 1.1762654210308083e-09 0.0000000000000000e+00  -2.5643613560423993e-09 7.8889327517497141e-10 0.0000000000000000e+00  -2.6549008852324217e-09 3.8068474623126332e-10 0.0000000000000000e+00  -2.6800492558791273e-09 -3.7119343268070256e-11 0.0000000000000000e+00  -2.6393510576994885e-09 -4.5311302645672610e-10 0.0000000000000000e+00  -2.5339971061850776e-09 -8.5595950540640322e-10 0.0000000000000000e+00  -2.3667979191135585e-09 -1.2346241399801022e-09 0.0000000000000000e+00  -2.1421124358179381e-09 -1.5786229405918437e-09 0.0000000000000000e+00  -1.8657601242414225e-09 -1.8783077143612194e-09 0.0000000000000000e+00  -1.5450698729744848e-09 -2.1252157205408531e-09 0.0000000000000000e+00  -1.1897684978999454e-09 -2.3124905463230324e-09 0.0000000000000000e+00  -8.1667214990684033e-10 -2.4349893711589226e-09 0.0000000000000000e+00  -4.7345084478502082e-10 -2.4868053818225801e-09 0.0000000000000000e+00  -2.9248361913233588e-10 -2.3129389110440698e-09 0.0000000000000000e+00  -3.8258847801677241e-10 3.1593477925468346e-09 0.0000000000000000e+00  -5.3798478078566797e-10 2.9668760632226872e-09 0.0000000000000000e+00  -8.9497696555627304e-10 2.8641313780176729e-09 0.0000000000000000e+00  -1.2793624683376799e-09 2.6932104775958203e-09 0.0000000000000000e+00  -1.6404659095041567e-09 2.4511301218629614e-09 0.0000000000000000e+00  -1.9615331688413998e-09 2.1431595445681838e-09 0.0000000000000000e+00  -2.2333685882524828e-09 1.7775757526020286e-09 0.0000000000000000e+00  -2.4493567717145115e-09 1.3645177241258821e-09 0.0000000000000000e+00  -2.6045006933592349e-09 9.1542048671933483e-10 0.0000000000000000e+00  -2.6953044564010178e-09 4.4258296750295430e-10 0.0000000000000000e+00  -2.7198103495150493e-09 -4.1185197713008015e-11 0.0000000000000000e+00  -2.6776391742002930e-09 -5.2286755166336645e-10 0.0000000000000000e+00  -2.5700034843939555e-09 -9.8952088906888202e-10 0.0000000000000000e+00  -2.3996895708895682e-09 -1.4285541372960115e-09 0.0000000000000000e+00  -2.1710131206611615e-09 -1.8280265421594295e-09 0.0000000000000000e+00  -1.8897843168083040e-09 -2.1769834491281404e-09 0.0000000000000000e+00  -1.5634582185802324e-09 -2.4658404767884699e-09 0.0000000000000000e+00  -1.2022400260862678e-09 -2.6867884743480219e-09 0.0000000000000000e+00  -8.2435614359841817e-10 -2.8338085304997540e-09 0.0000000000000000e+00  -4.8183550100000447e-10 -2.9001327593907015e-09 0.0000000000000000e+00  -3.2081123573478740e-10 -2.7287387316002973e-09 0.0000000000000000e+00  -4.2383825930560122e-10 3.5970513722538254e-09 0.0000000000000000e+00  -5.5735410128292953e-10 3.3970585399690704e-09 0.0000000000000000e+00  -9.1569965584080259e-10 3.2774414776888365e-09 0.0000000000000000e+00  -1.3060678232535504e-09 3.0788519329394778e-09 0.0000000000000000e+00  -1.6735124093435686e-09 2.7993745858098037e-09 0.0000000000000000e+00  -2.0001008245078821e-09 2.4455963026859162e-09 0.0000000000000000e+00  -2.2762277187321334e-09 2.0271193874474082e-09 0.0000000000000000e+00  -2.4951647858283850e-09 1.5554452974663768e-09 0.0000000000000000e+00  -2.6519554031535601e-09 1.0434398058326736e-09 0.0000000000000000e+00  -2.7432093113080237e-09 5.0489864785199720e-10 0.0000000000000000e+00  -2.7670761119826053e-09 -4.5825990383844449e-11 0.0000000000000000e+00  -2.7232474582463200e-09 -5.9415377600685802e-10 0.0000000000000000e+00  -2.6129579145106991e-09 -1.1255805216028188e-09 0.0000000000000000e+00  -2.4389790865130107e-09 -1.6259828936998445e-09 0.0000000000000000e+00  -2.2056107216978603e-09 -2.0819463361501373e-09 0.0000000000000000e+00  -1.9187055632082659e-09 -2.4811321796199203e-09 0.0000000000000000e+00  -1.5859154668363027e-09 -2.8126849336552525e-09 0.0000000000000000e+00  -1.2179915995723178e-09 -3.0676397683625744e-09 0.0000000000000000e+00  -8.3465288497732319e-10 -3.2389268332698551e-09 0.0000000000000000e+00  -4.9273327442609488e-10 -3.3189017091041032e-09 0.0000000000000000e+00  -3.5444086247330418e-10 -3.1478185982533188e-09 0.0000000000000000e+00  -4.7085175338475733e-10 4.0418696033159153e-09 0.0000000000000000e+00  -5.7832763019451348e-10 3.8349027387361208e-09 0.0000000000000000e+00  -9.3691672495529740e-10 3.6983397513964014e-09 0.0000000000000000e+00  -1.3325935226665861e-09 3.4716689233357055e-09 0.0000000000000000e+00  -1.7056476267092956e-09 3.1539807284525283e-09 0.0000000000000000e+00  -2.0369611188946514e-09 2.7532708030348522e-09 0.0000000000000000e+00  -2.3165963069054772e-09 2.2806299257778978e-09 0.0000000000000000e+00  -2.5377811955446798e-09 1.7490694367323649e-09 0.0000000000000000e+00  -2.6956517410150488e-09 1.1729731869324068e-09 0.0000000000000000e+00  -2.7869618254826680e-09 5.6765610432635321e-10 0.0000000000000000e+00  -2.8099920267023956e-09 -5.1013763753556434e-11 0.0000000000000000e+00  -2.7645100904093429e-09 -6.6694369936332768e-10 0.0000000000000000e+00  -2.6517587702086406e-09 -1.2641183443813609e-09 0.0000000000000000e+00  -2.4744669170922128e-09 -1.8269051010499312e-09 0.0000000000000000e+00  -2.2368847822452461e-09 -2.3403911621755378e-09 0.0000000000000000e+00  -1.9448764624271687e-09 -2.7907702841017164e-09 0.0000000000000000e+00  -1.6062638841960495e-09 -3.1657780934351799e-09 0.0000000000000000e+00  -1.2323260875972969e-09 -3.4551344184839484e-09 0.0000000000000000e+00  -8.4433185240371540e-10 -3.6506036004684077e-09 0.0000000000000000e+00  -5.0442396257203505e-10 -3.7436721042834316e-09 0.0000000000000000e+00  -3.9336704509640891e-10 -3.5716978443839880e-09 0.0000000000000000e+00  -5.2378889402768481e-10 4.4921980536947528e-09 0.0000000000000000e+00  -5.9899863407214387e-10 4.2794745009927992e-09 0.0000000000000000e+00  -9.5483618560530952e-10 4.1256488186080836e-09 0.0000000000000000e+00  -1.3533278539208786e-09 3.8702617962544253e-09 0.0000000000000000e+00  -1.7295025432131430e-09 3.5134427115526363e-09 0.0000000000000000e+00  -2.0630630136658474e-09 3.0647081393169480e-09 0.0000000000000000e+00  -2.3438744075001073e-09 2.5367831360597040e-09 0.0000000000000000e+00  -2.5652764542816156e-09 1.9443147535584335e-09 0.0000000000000000e+00  -2.7226391233356400e-09 1.3032726767081303e-09 0.0000000000000000e+00  -2.8129714808075889e-09 6.3049065980416562e-10 0.0000000000000000e+00  -2.8347537737586988e-09 -5.6703260327061169e-11 0.0000000000000000e+00  -2.7878484666472894e-09 -7.4078881643039109e-10 0.0000000000000000e+00  -2.6734742852413533e-09 -1.4043209125052096e-09 0.0000000000000000e+00  -2.4942416852177047e-09 -2.0302045823460931e-09 0.0000000000000000e+00  -2.2542463947270138e-09 -2.6020177911656658e-09 0.0000000000000000e+00  -1.9592463508687459e-09 -3.1044087852058388e-09 0.0000000000000000e+00  -1.6171208174309371e-09 -3.5235706415625413e-09 0.0000000000000000e+00  -1.2395955544529793e-09 -3.8477538042153290e-09 0.0000000000000000e+00  -8.4953106681187952e-10 -4.0674408601852966e-09 0.0000000000000000e+00  -5.1490503136635495e-10 -4.1732411154137616e-09 0.0000000000000000e+00  -4.3764908796707183e-10 -4.0000829650225804e-09 0.0000000000000000e+00  -5.8285220084100992e-10 4.9441112557434138e-09 0.0000000000000000e+00  -6.1710929275545690e-10 4.7277339929231760e-09 0.0000000000000000e+00  -9.6492418553326074e-10 4.5561672152217337e-09 0.0000000000000000e+00  -1.3615125348535928e-09 4.2712826395909963e-09 0.0000000000000000e+00  -1.7361709147642954e-09 3.8743859886869174e-09 0.0000000000000000e+00  -2.0674645075136835e-09 3.3766838853475455e-09 0.0000000000000000e+00  -2.3452665355798760e-09 2.7927023260659409e-09 0.0000000000000000e+00  -2.5632775170803312e-09 2.1388442227413367e-09 0.0000000000000000e+00  -2.7173405323544155e-09 1.4327059292470034e-09 0.0000000000000000e+00  -2.8049130213614990e-09 6.9259370958828612e-10 0.0000000000000000e+00  -2.8247959724922195e-09 -6.2821236857612586e-11 0.0000000000000000e+00  -2.7769801180418536e-09 -8.1474421789908191e-10 0.0000000000000000e+00  -2.6626038254423508e-09 -1.5444472763808754e-09 0.0000000000000000e+00  -2.4840242630962415e-09 -2.2334725489025445e-09 0.0000000000000000e+00  -2.2449922706801887e-09 -2.8639104284619415e-09 0.0000000000000000e+00  -1.9509446956709963e-09 -3.4187960173365362e-09 0.0000000000000000e+00  -1.6096141163707690e-09 -3.8826360035041932e-09 0.0000000000000000e+00  -1.2330263060207680e-09 -4.2420300908371894e-09 0.0000000000000000e+00  -8.4565042779828077e-10 -4.4860230644271262e-09 0.0000000000000000e+00  -5.2182352317500615e-10 -4.6043061783090631e-09 0.0000000000000000e+00  -4.8738929988383437e-10 -4.4306073358051380e-09 0.0000000000000000e+00  -6.4827715160554421e-10 5.3909309260011822e-09 0.0000000000000000e+00  -6.2995955775725183e-10 5.1741238940752174e-09 0.0000000000000000e+00  -9.6173180377615653e-10 4.9842313963454221e-09 0.0000000000000000e+00  -1.3489765921235022e-09 4.6689877058212841e-09 0.0000000000000000e+00  -1.7148299749807560e-09 4.2311378207320124e-09 0.0000000000000000e+00  -2.0368224210713147e-09 3.6838356957168450e-09 0.0000000000000000e+00  -2.3051372862093380e-09 3.0436258682706443e-09 0.0000000000000000e+00  -2.5142035728381173e-09 2.3287959916081688e-09 0.0000000000000000e+00  -2.6606964518849600e-09 1.5585762596308736e-09 0.0000000000000000e+00  -2.7428148428934203e-09 7.5262808797865615e-10 0.0000000000000000e+00  -2.7598647479117651e-09 -6.9249300616997408e-11 0.0000000000000000e+00  -2.7120153858138183e-09 -8.8725108985187429e-10 0.0000000000000000e+00  -2.6002363113737679e-09 -1.6816206287995340e-09 0.0000000000000000e+00  -2.4264207539590219e-09 -2.4327236763626971e-09 0.0000000000000000e+00  -2.1936770617827537e-09 -3.1212384987079813e-09 0.0000000000000000e+00  -1.9067854914721207e-09 -3.7285328103491584e-09 0.0000000000000000e+00  -1.5730157196767496e-09 -4.2372562321354497e-09 0.0000000000000000e+00  -1.2044637601836033e-09 -4.6321169460790743e-09 0.0000000000000000e+00  -8.2718449703129585e-10 -4.9004910291066232e-09 0.0000000000000000e+00  -5.2238347602136900e-10 -5.0310611917682891e-09 0.0000000000000000e+00  -5.4271981050631254e-10 -4.8584903167091786e-09 0.0000000000000000e+00  -7.2033237299161650e-10 5.8226797428702374e-09 0.0000000000000000e+00  -6.3430073836067357e-10 5.6100585797859325e-09 0.0000000000000000e+00  -9.3867995191464880e-10 5.4011793207207907e-09 0.0000000000000000e+00  -1.3058000310165042e-09 5.0546798369265404e-09 0.0000000000000000e+00  -1.6522670296235587e-09 4.5751700996406356e-09 0.0000000000000000e+00  -1.95476999