<?xml version="1.0"?>
<VTKFile type="UnstructuredGrid"  version="0.1"  >
<UnstructuredGrid>
<Piece  NumberOfPoints="651" NumberOfCells="1200">
<Points>
<DataArray  type="Float64"  NumberOfComponents="3"  format="ascii">0 0 0  50000 0 0  100000 0 0  150000 0 0  200000 0 0  250000 0 0  300000 0 0  350000 0 0  400000 0 0  450000 0 0  500000 0 0  550000 0 0  600000 0 0  650000 0 0  700000 0 0  750000 0 0  800000 0 0  850000 0 0  900000 0 0  950000 0 0  1000000 0 0  0 50000 0  50000 50000 0  100000 50000 0  150000 50000 0  200000 50000 0  250000 50000 0  300000 50000 0  350000 50000 0  400000 50000 0  450000 50000 0  500000 50000 0  550000 50000 0  600000 50000 0  650000 50000 0  700000 50000 0  750000 50000 0  800000 50000 0  850000 50000 0  900000 50000 0  950000 50000 0  1000000 50000 0  0 100000 0  50000 100000 0  100000 100000 0  150000 100000 0  200000 100000 0  250000 100000 0  300000 100000 0  350000 100000 0  400000 100000 0  450000 100000 0  500000 100000 0  550000 100000 0  600000 100000 0  650000 100000 0  700000 100000 0  750000 100000 0  800000 100000 0  850000 100000 0  900000 100000 0  950000 100000 0  1000000 100000 0  0 150000 0  50000 150000 0  100000 150000 0  150000 150000 0  200000 150000 0  250000 150000 0  300000 150000 0  350000 150000 0  400000 150000 0  450000 150000 0  500000 150000 0  550000 150000 0  600000 150000 0  650000 150000 0  700000 150000 0  750000 150000 0  800000 150000 0  850000 150000 0  900000 150000 0  950000 150000 0  1000000 150000 0  0 200000 0  50000 200000 0  100000 200000 0  150000 200000 0  200000 200000 0  250000 200000 0  300000 200000 0  350000 200000 0  400000 200000 0  450000 200000 0  500000 200000 0  550000 200000 0  600000 200000 0  650000 200000 0  700000 200000 0  750000 200000 0  800000 200000 0  850000 200000 0  900000 200000 0  950000 200000 0  1000000 200000 0  0 250000 0  50000 250000 0  100000 250000 0  150000 250000 0  200000 250000 0  250000 250000 0  300000 250000 0  350000 250000 0  400000 250000 0  450000 250000 0  500000 250000 0  550000 250000 0  600000 250000 0  650000 250000 0  700000 250000 0  750000 250000 0  800000 250000 0  850000 250000 0  900000 250000 0  950000 250000 0  1000000 250000 0  0 300000 0  50000 300000 0  100000 300000 0  150000 300000 0  200000 300000 0  250000 300000 0  300000 300000 0  350000 300000 0  400000 300000 0  450000 300000 0  500000 300000 0  550000 300000 0  600000 300000 0  650000 300000 0  700000 300000 0  750000 300000 0  800000 300000 0  850000 300000 0  900000 300000 0  950000 300000 0  1000000 300000 0  0 350000 0  50000 350000 0  100000 350000 0  150000 350000 0  200000 350000 0  250000 350000 0  300000 350000 0  350000 350000 0  400000 350000 0  450000 350000 0  500000 350000 0  550000 350000 0  600000 350000 0  650000 350000 0  700000 350000 0  750000 350000 0  800000 350000 0  850000 350000 0  900000 350000 0  950000 350000 0  1000000 350000 0  0 400000 0  50000 400000 0  100000 400000 0  150000 400000 0  200000 400000 0  250000 400000 0  300000 400000 0  350000 400000 0  400000 400000 0  450000 400000 0  500000 400000 0  550000 400000 0  600000 400000 0  650000 400000 0  700000 400000 0  750000 400000 0  800000 400000 0  850000 400000 0  900000 400000 0  950000 400000 0  1000000 400000 0  0 450000 0  50000 450000 0  100000 450000 0  150000 450000 0  200000 450000 0  250000 450000 0  300000 450000 0  350000 450000 0  400000 450000 0  450000 450000 0  500000 450000 0  550000 450000 0  600000 450000 0  650000 450000 0  700000 450000 0  750000 450000 0  800000 450000 0  850000 450000 0  900000 450000 0  950000 450000 0  1000000 450000 0  0 500000 0  50000 500000 0  100000 500000 0  150000 500000 0  200000 500000 0  250000 500000 0  300000 500000 0  350000 500000 0  400000 500000 0  450000 500000 0  500000 500000 0  550000 500000 0  600000 500000 0  650000 500000 0  700000 500000 0  750000 500000 0  800000 500000 0  850000 500000 0  900000 500000 0  950000 500000 0  1000000 500000 0  0 550000 0  50000 550000 0  100000 550000 0  150000 550000 0  200000 550000 0  250000 550000 0  300000 550000 0  350000 550000 0  400000 550000 0  450000 550000 0  500000 550000 0  550000 550000 0  600000 550000 0  650000 550000 0  700000 550000 0  750000 550000 0  800000 550000 0  850000 550000 0  900000 550000 0  950000 550000 0  1000000 550000 0  0 600000 0  50000 600000 0  100000 600000 0  150000 600000 0  200000 600000 0  250000 600000 0  300000 600000 0  350000 600000 0  400000 600000 0  450000 600000 0  500000 600000 0  550000 600000 0  600000 600000 0  650000 600000 0  700000 600000 0  750000 600000 0  800000 600000 0  850000 600000 0  900000 600000 0  950000 600000 0  1000000 600000 0  0 650000 0  50000 650000 0  100000 650000 0  150000 650000 0  200000 650000 0  250000 650000 0  300000 650000 0  350000 650000 0  400000 650000 0  450000 650000 0  500000 650000 0  550000 650000 0  600000 650000 0  650000 650000 0  700000 650000 0  750000 650000 0  800000 650000 0  850000 650000 0  900000 650000 0  950000 650000 0  1000000 650000 0  0 700000 0  50000 700000 0  100000 700000 0  150000 700000 0  200000 700000 0  250000 700000 0  300000 700000 0  350000 700000 0  400000 700000 0  450000 700000 0  500000 700000 0  550000 700000 0  600000 700000 0  650000 700000 0  700000 700000 0  750000 700000 0  800000 700000 0  850000 700000 0  900000 700000 0  950000 700000 0  1000000 700000 0  0 750000 0  50000 750000 0  100000 750000 0  150000 750000 0  200000 750000 0  250000 750000 0  300000 750000 0  350000 750000 0  400000 750000 0  450000 750000 0  500000 750000 0  550000 750000 0  600000 750000 0  650000 750000 0  700000 750000 0  750000 750000 0  800000 750000 0  850000 750000 0  900000 750000 0  950000 750000 0  1000000 750000 0  0 800000 0  50000 800000 0  100000 800000 0  150000 800000 0  200000 800000 0  250000 800000 0  300000 800000 0  350000 800000 0  400000 800000 0  450000 800000 0  500000 800000 0  550000 800000 0  600000 800000 0  650000 800000 0  700000 800000 0  750000 800000 0  800000 800000 0  850000 800000 0  900000 800000 0  950000 800000 0  1000000 800000 0  0 850000 0  50000 850000 0  100000 850000 0  150000 850000 0  200000 850000 0  250000 850000 0  300000 850000 0  350000 850000 0  400000 850000 0  450000 850000 0  500000 850000 0  550000 850000 0  600000 850000 0  650000 850000 0  700000 850000 0  750000 850000 0  800000 850000 0  850000 850000 0  900000 850000 0  950000 850000 0  1000000 850000 0  0 900000 0  50000 900000 0  100000 900000 0  150000 900000 0  200000 900000 0  250000 900000 0  300000 900000 0  350000 900000 0  400000 900000 0  450000 900000 0  500000 900000 0  550000 900000 0  600000 900000 0  650000 900000 0  700000 900000 0  750000 900000 0  800000 900000 0  850000 900000 0  900000 900000 0  950000 900000 0  1000000 900000 0  0 950000 0  50000 950000 0  100000 950000 0  150000 950000 0  200000 950000 0  250000 950000 0  300000 950000 0  350000 950000 0  400000 950000 0  450000 950000 0  500000 950000 0  550000 950000 0  600000 950000 0  650000 950000 0  700000 950000 0  750000 950000 0  800000 950000 0  850000 950000 0  900000 950000 0  950000 950000 0  1000000 950000 0  0 1000000 0  50000 1000000 0  100000 1000000 0  150000 1000000 0  200000 1000000 0  250000 1000000 0  300000 1000000 0  350000 1000000 0  400000 1000000 0  450000 1000000 0  500000 1000000 0  550000 1000000 0  600000 1000000 0  650000 1000000 0  700000 1000000 0  750000 1000000 0  800000 1000000 0  850000 1000000 0  900000 1000000 0  950000 1000000 0  1000000 1000000 0  0 1050000 0  50000 1050000 0  100000 1050000 0  150000 1050000 0  200000 1050000 0  250000 1050000 0  300000 1050000 0  350000 1050000 0  400000 1050000 0  450000 1050000 0  500000 1050000 0  550000 1050000 0  600000 1050000 0  650000 1050000 0  700000 1050000 0  750000 1050000 0  800000 1050000 0  850000 1050000 0  900000 1050000 0  950000 1050000 0  1000000 1050000 0  0 1100000 0  50000 1100000 0  100000 1100000 0  150000 1100000 0  200000 1100000 0  250000 1100000 0  300000 1100000 0  350000 1100000 0  400000 1100000 0  450000 1100000 0  500000 1100000 0  550000 1100000 0  600000 1100000 0  650000 1100000 0  700000 1100000 0  750000 1100000 0  800000 1100000 0  850000 1100000 0  900000 1100000 0  950000 1100000 0  1000000 1100000 0  0 1150000 0  50000 1150000 0  100000 1150000 0  150000 1150000 0  200000 1150000 0  250000 1150000 0  300000 1150000 0  350000 1150000 0  400000 1150000 0  450000 1150000 0  500000 1150000 0  550000 1150000 0  600000 1150000 0  650000 1150000 0  700000 1150000 0  750000 1150000 0  800000 1150000 0  850000 1150000 0  900000 1150000 0  950000 1150000 0  1000000 1150000 0  0 1200000 0  50000 1200000 0  100000 1200000 0  150000 1200000 0  200000 1200000 0  250000 1200000 0  300000 1200000 0  350000 1200000 0  400000 1200000 0  450000 1200000 0  500000 1200000 0  550000 1200000 0  600000 1200000 0  650000 1200000 0  700000 1200000 0  750000 1200000 0  800000 1200000 0  850000 1200000 0  900000 1200000 0  950000 1200000 0  1000000 1200000 0  0 1250000 0  50000 1250000 0  100000 1250000 0  150000 1250000 0  200000 1250000 0  250000 1250000 0  300000 1250000 0  350000 1250000 0  400000 1250000 0  450000 1250000 0  500000 1250000 0  550000 1250000 0  600000 1250000 0  650000 1250000 0  700000 1250000 0  750000 1250000 0  800000 1250000 0  850000 1250000 0  900000 1250000 0  950000 1250000 0  1000000 1250000 0  0 1300000 0  50000 1300000 0  100000 1300000 0  150000 1300000 0  200000 1300000 0  250000 1300000 0  300000 1300000 0  350000 1300000 0  400000 1300000 0  450000 1300000 0  500000 1300000 0  550000 1300000 0  600000 1300000 0  650000 1300000 0  700000 1300000 0  750000 1300000 0  800000 1300000 0  850000 1300000 0  900000 1300000 0  950000 1300000 0  1000000 1300000 0  0 1350000 0  50000 1350000 0  100000 1350000 0  150000 1350000 0  200000 1350000 0  250000 1350000 0  300000 1350000 0  350000 1350000 0  400000 1350000 0  450000 1350000 0  500000 1350000 0  550000 1350000 0  600000 1350000 0  650000 1350000 0  700000 135
[...]
<PointData  Vectors="f_15"> 
<DataArray  type="Float64"  Name="f_15"  NumberOfComponents="3" format="ascii">-3.2677037995250984e-10 2.8623288328291618e-10 0.0000000000000000e+00  -6.0079272618493611e-10 2.3438733182782963e-10 0.0000000000000000e+00  -1.0871340770624855e-09 2.1380603080445913e-10 0.0000000000000000e+00  -1.5567958966122938e-09 1.9567932880159774e-10 0.0000000000000000e+00  -1.9867534155251017e-09 1.7409835551576848e-10 0.0000000000000000e+00  -2.3645070381190949e-09 1.4854224627210859e-10 0.0000000000000000e+00  -2.6798941902110425e-09 1.1933183087409770e-10 0.0000000000000000e+00  -2.9246925721903257e-09 8.7070343107472488e-11 0.0000000000000000e+00  -3.0926146981026441e-09 5.2520079538835206e-11 0.0000000000000000e+00  -3.1794210631518017e-09 1.6536865532091143e-11 0.0000000000000000e+00  -3.1830122877168403e-09 -1.9973082773002094e-11 0.0000000000000000e+00  -3.1034735350642661e-09 -5.6086724810670016e-11 0.0000000000000000e+00  -2.9430664751502507e-09 -9.0894134068798955e-11 0.0000000000000000e+00  -2.7061689677736117e-09 -1.2352791035883993e-10 0.0000000000000000e+00  -2.3991733055387996e-09 -1.5319618873567794e-10 0.0000000000000000e+00  -2.0304092625240538e-09 -1.7923322458138496e-10 0.0000000000000000e+00  -1.6104394120387902e-09 -2.0121960387272496e-10 0.0000000000000000e+00  -1.1543181917569101e-09 -2.1931741492873215e-10 0.0000000000000000e+00  -6.9226510374006004e-10 -2.3394473314968622e-10 0.0000000000000000e+00  -3.1499846742043442e-10 -2.2712104680472443e-10 0.0000000000000000e+00  -1.5618754214154500e-10 -1.4441492850051228e-10 0.0000000000000000e+00  -2.7746884831969195e-10 5.3844252768514483e-10 0.0000000000000000e+00  -4.9658385910901418e-10 4.8710048552088400e-10 0.0000000000000000e+00  -8.7950389459200722e-10 5.0104624172785916e-10 0.0000000000000000e+00  -1.3060570812368970e-09 4.7637639582518331e-10 0.0000000000000000e+00  -1.7124199519445980e-09 4.3334587123278244e-10 0.0000000000000000e+00  -2.0777492582298134e-09 3.7696376333383189e-10 0.0000000000000000e+00  -2.3904035043458091e-09 3.0994687908684684e-10 0.0000000000000000e+00  -2.6414846554478228e-09 2.3452974092235151e-10 0.0000000000000000e+00  -2.8241531276041666e-09 1.5289931348307464e-10 0.0000000000000000e+00  -2.9335812242148986e-09 6.7300529524992411e-11 0.0000000000000000e+00  -2.9669787475588701e-09 -1.9964152286118194e-11 0.0000000000000000e+00  -2.9236209081475625e-09 -1.0656886483608681e-10 0.0000000000000000e+00  -2.8048526956935322e-09 -1.9020819013568764e-10 0.0000000000000000e+00  -2.6140627900809990e-09 -2.6864081321785899e-10 0.0000000000000000e+00  -2.3566371753062506e-09 -3.3972432623160046e-10 0.0000000000000000e+00  -2.0399395659320406e-09 -4.0142502045858828e-10 0.0000000000000000e+00  -1.6735010926241467e-09 -4.5174734695110811e-10 0.0000000000000000e+00  -1.2701854965066754e-09 -4.8827575329891176e-10 0.0000000000000000e+00  -8.5159916657500425e-10 -5.0539323466145905e-10 0.0000000000000000e+00  -4.7139737258633778e-10 -4.8169965950221763e-10 0.0000000000000000e+00  -2.4674612303780982e-10 -2.9144092576127636e-10 0.0000000000000000e+00  -2.7054979138291685e-10 9.8659332083000099e-10 0.0000000000000000e+00  -5.0692463113488186e-10 8.6745883780659714e-10 0.0000000000000000e+00  -8.7188422881924570e-10 8.7596556661550216e-10 0.0000000000000000e+00  -1.2630787390069640e-09 8.3739251375169478e-10 0.0000000000000000e+00  -1.6379121759020554e-09 7.6588868682705520e-10 0.0000000000000000e+00  -1.9772934867450202e-09 6.6938525905055639e-10 0.0000000000000000e+00  -2.2687682261099284e-09 5.5316439737329762e-10 0.0000000000000000e+00  -2.5033409986942099e-09 4.2152778526704828e-10 0.0000000000000000e+00  -2.6742942267977881e-09 2.7853565960217085e-10 0.0000000000000000e+00  -2.7769345474462635e-09 1.2825981657578207e-10 0.0000000000000000e+00  -2.8085614486322239e-09 -2.5168162561920506e-11 0.0000000000000000e+00  -2.7684690028660486e-09 -1.7758830803254127e-10 0.0000000000000000e+00  -2.6579402020490965e-09 -3.2487035855295338e-10 0.0000000000000000e+00  -2.4802246858358371e-09 -4.6297220281450880e-10 0.0000000000000000e+00  -2.2405077846744392e-09 -5.8797471432593424e-10 0.0000000000000000e+00  -1.9459110794483315e-09 -6.9605020131565749e-10 0.0000000000000000e+00  -1.6056690086603180e-09 -7.8325641810318171e-10 0.0000000000000000e+00  -1.2320192594182963e-09 -8.4485716457779761e-10 0.0000000000000000e+00  -8.4383556723116476e-10 -8.7336568847671587e-10 0.0000000000000000e+00  -4.8448190928941535e-10 -8.5500069948454546e-10 0.0000000000000000e+00  -2.6174757868712574e-10 -6.3618598759044901e-10 0.0000000000000000e+00  -2.7840340722999038e-10 1.4281278124426251e-09 0.0000000000000000e+00  -5.0580205303256177e-10 1.2835169607426395e-09 0.0000000000000000e+00  -8.6527349075697530e-10 1.2696087813149511e-09 0.0000000000000000e+00  -1.2430926189556774e-09 1.2104110471584347e-09 0.0000000000000000e+00  -1.6007371123708224e-09 1.1084614648113945e-09 0.0000000000000000e+00  -1.9231827919961380e-09 9.7100000595836606e-10 0.0000000000000000e+00  -2.1998678366385006e-09 8.0469157275838834e-10 0.0000000000000000e+00  -2.4224186494816683e-09 6.1564204852011494e-10 0.0000000000000000e+00  -2.5844098258100887e-09 4.0979134076510630e-10 0.0000000000000000e+00  -2.6813308280220259e-09 1.9310899888745979e-10 0.0000000000000000e+00  -2.7105888253751002e-09 -2.8363323726093864e-11 0.0000000000000000e+00  -2.6715146636330092e-09 -2.4855212486399749e-10 0.0000000000000000e+00  -2.5653542669840894e-09 -4.6142685607697404e-10 0.0000000000000000e+00  -2.3952393252661279e-09 -6.6107838338514368e-10 0.0000000000000000e+00  -2.1661384171966648e-09 -8.4177431817637673e-10 0.0000000000000000e+00  -1.8848047944530519e-09 -9.9795680037287828e-10 0.0000000000000000e+00  -1.5598001380845660e-09 -1.1241351958154557e-09 0.0000000000000000e+00  -1.2019850892562165e-09 -1.2146502264169029e-09 0.0000000000000000e+00  -8.2745558470353540e-10 -1.2633407508260636e-09 0.0000000000000000e+00  -4.7650928187236885e-10 -1.2626872943195835e-09 0.0000000000000000e+00  -2.6491940533710876e-10 -1.0556387097056026e-09 0.0000000000000000e+00  -2.9429850316369297e-10 1.8605321034803114e-09 0.0000000000000000e+00  -5.0686313247572865e-10 1.7014072570576671e-09 0.0000000000000000e+00  -8.6285053751078523e-10 1.6644187210859953e-09 0.0000000000000000e+00  -1.2364699398424125e-09 1.5798199110752908e-09 0.0000000000000000e+00  -1.5873584635662128e-09 1.4454790517480382e-09 0.0000000000000000e+00  -1.9017135305710245e-09 1.2669447147140151e-09 0.0000000000000000e+00  -2.1703748956393174e-09 1.0513232427599954e-09 0.0000000000000000e+00  -2.3858747545984360e-09 8.0603812121274929e-10 0.0000000000000000e+00  -2.5422823782547902e-09 5.3868543551201638e-10 0.0000000000000000e+00  -2.6353561682607584e-09 2.5702760961467667e-10 0.0000000000000000e+00  -2.6626457987755576e-09 -3.1044587382549981e-11 0.0000000000000000e+00  -2.6235344192829794e-09 -3.1759360044979832e-10 0.0000000000000000e+00  -2.5192385185900914e-09 -5.9474227121388572e-10 0.0000000000000000e+00  -2.3527712477698958e-09 -8.5478785713124890e-10 0.0000000000000000e+00  -2.1288682443181379e-09 -1.0903075747055646e-09 0.0000000000000000e+00  -1.8538816228845792e-09 -1.2942475145770135e-09 0.0000000000000000e+00  -1.5357175472883578e-09 -1.4600129645995477e-09 0.0000000000000000e+00  -1.1842960495533375e-09 -1.5816555296279232e-09 0.0000000000000000e+00  -8.1501821553931623e-10 -1.6541468260338595e-09 0.0000000000000000e+00  -4.7018852498327157e-10 -1.6720406759060551e-09 0.0000000000000000e+00  -2.7552702254708204e-10 -1.4791897315037767e-09 0.0000000000000000e+00  -3.1680931964199725e-10 2.2891147132496753e-09 0.0000000000000000e+00  -5.1324005902936521e-10 2.1186569522998227e-09 0.0000000000000000e+00  -8.6758591642845365e-10 2.0604345815900064e-09 0.0000000000000000e+00  -1.2417788132041735e-09 1.9484161545279761e-09 0.0000000000000000e+00  -1.5922797317076567e-09 1.7797719463510259e-09 0.0000000000000000e+00  -1.9048798734343945e-09 1.5592738893862317e-09 0.0000000000000000e+00  -2.1709341187126826e-09 1.2942844573276758e-09 0.0000000000000000e+00  -2.3835804138342515e-09 9.9323998707056212e-10 0.0000000000000000e+00  -2.5373391507394271e-09 6.6517418734226770e-10 0.0000000000000000e+00  -2.6282583459295787e-09 3.1950163418714608e-10 0.0000000000000000e+00  -2.6540532604717064e-09 -3.4135149846581942e-11 0.0000000000000000e+00  -2.6141767923686471e-09 -3.8601437905566866e-10 0.0000000000000000e+00  -2.5098313603840398e-09 -7.2649154458730180e-10 0.0000000000000000e+00  -2.3439319048106822e-09 -1.0461632352241549e-09 0.0000000000000000e+00  -2.1210222955736549e-09 -1.3360384519063790e-09 0.0000000000000000e+00  -1.8471589033623336e-09 -1.5877283227513977e-09 0.0000000000000000e+00  -1.5298748869828584e-09 -1.7936911615934487e-09 0.0000000000000000e+00  -1.1788416096058761e-09 -1.9476016549182069e-09 0.0000000000000000e+00  -8.1008340748761503e-10 -2.0446151375726097e-09 0.0000000000000000e+00  -4.6931662466056969e-10 -2.0793069568319492e-09 0.0000000000000000e+00  -2.9264027372997555e-10 -1.8964362729154380e-09 0.0000000000000000e+00  -3.4544327283944602e-10 2.7186959359020813e-09 0.0000000000000000e+00  -5.2498126964920092e-10 2.5380034587487990e-09 0.0000000000000000e+00  -8.7962366633346964e-10 2.4600050936759864e-09 0.0000000000000000e+00  -1.2574836561534144e-09 2.3200057276591160e-09 0.0000000000000000e+00  -1.6114874902291970e-09 2.1156543020612981e-09 0.0000000000000000e+00  -1.9264392821668496e-09 1.8519512887084222e-09 0.0000000000000000e+00  -2.1936405664654938e-09 1.5367869580964975e-09 0.0000000000000000e+00  -2.4064847212589888e-09 1.1795772113483308e-09 0.0000000000000000e+00  -2.5597892557017420e-09 7.9068536766054601e-10 0.0000000000000000e+00  -2.6498421340801815e-09 3.8107253038279448e-10 0.0000000000000000e+00  -2.6745182442229398e-09 -3.7957534618789727e-11 0.0000000000000000e+00  -2.6333504613530969e-09 -4.5497863912904856e-10 0.0000000000000000e+00  -2.5275472080049502e-09 -8.5865406733482330e-10 0.0000000000000000e+00  -2.3599623207810378e-09 -1.2379538084053942e-09 0.0000000000000000e+00  -2.1350228191516867e-09 -1.5823889027018143e-09 0.0000000000000000e+00  -1.8586414942828800e-09 -1.8822801135563999e-09 0.0000000000000000e+00  -1.5382661187992133e-09 -2.1290876453464856e-09 0.0000000000000000e+00  -1.1837813495571503e-09 -2.3158160919514267e-09 0.0000000000000000e+00  -8.1237259407443994e-10 -2.4371443572437781e-09 0.0000000000000000e+00  -4.7361785542949164e-10 -2.4869644466644972e-09 0.0000000000000000e+00  -3.1538176732183674e-10 -2.3098109187007489e-09 0.0000000000000000e+00  -3.8001970699773204e-10 3.1528943198224896e-09 0.0000000000000000e+00  -5.4118833803383079e-10 2.9624288382296853e-09 0.0000000000000000e+00  -8.9745370308201249e-10 2.8655422406046778e-09 0.0000000000000000e+00  -1.2809323893715259e-09 2.6973347745905647e-09 0.0000000000000000e+00  -1.6406758651276282e-09 2.4562260752260700e-09 0.0000000000000000e+00  -1.9603285274801327e-09 2.1480112082000067e-09 0.0000000000000000e+00  -2.2308863937400547e-09 1.7814545669139959e-09 0.0000000000000000e+00  -2.4457787656767557e-09 1.3670738110359624e-09 0.0000000000000000e+00  -2.5999857048032059e-09 9.1656279905248968e-10 0.0000000000000000e+00  -2.6899738736927270e-09 4.4238048793514728e-10 0.0000000000000000e+00  -2.7137595140751277e-09 -4.2572969621929957e-11 0.0000000000000000e+00  -2.6709582536710490e-09 -5.2523386481324506e-10 0.0000000000000000e+00  -2.5628002743342441e-09 -9.9263433237097485e-10 0.0000000000000000e+00  -2.3921116170625597e-09 -1.4321648249325406e-09 0.0000000000000000e+00  -2.1632682779955771e-09 -1.8318579139234379e-09 0.0000000000000000e+00  -1.8821584452888523e-09 -2.1807102039105047e-09 0.0000000000000000e+00  -1.5563289235511247e-09 -2.4690542196418561e-09 0.0000000000000000e+00  -1.1961028957186491e-09 -2.6889594905019913e-09 0.0000000000000000e+00  -8.2003149503627844e-10 -2.8342758783468854e-09 0.0000000000000000e+00  -4.8193416475152916e-10 -2.8980082855700901e-09 0.0000000000000000e+00  -3.4341750048182906e-10 -2.7233632347710116e-09 0.0000000000000000e+00  -4.2052147647316878e-10 3.5938003510033745e-09 0.0000000000000000e+00  -5.6055420663289900e-10 3.3940104580457878e-09 0.0000000000000000e+00  -9.1865948841924142e-10 3.2786459115265852e-09 0.0000000000000000e+00  -1.3084780308071766e-09 3.0819312460726208e-09 0.0000000000000000e+00  -1.6747584873303447e-09 2.8031155618256093e-09 0.0000000000000000e+00  -1.9999321623584969e-09 2.4490827008827771e-09 0.0000000000000000e+00  -2.2746248232236131e-09 2.0297487805599867e-09 0.0000000000000000e+00  -2.4922219061811271e-09 1.5568969298815776e-09 0.0000000000000000e+00  -2.6478075826234006e-09 1.0436124792299872e-09 0.0000000000000000e+00  -2.7379995641005646e-09 5.0384571237663330e-10 0.0000000000000000e+00  -2.7609486259350777e-09 -4.7949830002303697e-11 0.0000000000000000e+00  -2.7163547546686416e-09 -5.9712939165328491e-10 0.0000000000000000e+00  -2.6054741987796805e-09 -1.1291454151850791e-09 0.0000000000000000e+00  -2.4311153393728529e-09 -1.6298381410661175e-09 0.0000000000000000e+00  -2.1976286902246794e-09 -2.0857511786712349e-09 0.0000000000000000e+00  -1.9109281848031544e-09 -2.4844881853919075e-09 0.0000000000000000e+00  -1.5787332191511430e-09 -2.8151133381237230e-09 0.0000000000000000e+00  -1.2118842486059584e-09 -3.0685602439694324e-09 0.0000000000000000e+00  -8.3039724426422293e-10 -3.2376609118741765e-09 0.0000000000000000e+00  -4.9278222319796286e-10 -3.3144845677406730e-09 0.0000000000000000e+00  -3.7663878624793825e-10 -3.1401843553642782e-09 0.0000000000000000e+00  -4.6702801267298929e-10 4.0417662084835948e-09 0.0000000000000000e+00  -5.8148294770686794e-10 3.8334416481709933e-09 0.0000000000000000e+00  -9.4015650015516203e-10 3.6996572354309791e-09 0.0000000000000000e+00  -1.3355544008215746e-09 3.4739615766633522e-09 0.0000000000000000e+00  -1.7076409798726025e-09 3.1564690809787209e-09 0.0000000000000000e+00  -2.0376162932924506e-09 2.7553370150988363e-09 0.0000000000000000e+00  -2.3157776321554181e-09 2.2818452785067971e-09 0.0000000000000000e+00  -2.5355011578370430e-09 1.7491996096284212e-09 0.0000000000000000e+00  -2.6920059364798012e-09 1.1719544023940324e-09 0.0000000000000000e+00  -2.7820904137467702e-09 5.6555862283489883e-10 0.0000000000000000e+00  -2.8040622936313998e-09 -5.4021157187174604e-11 0.0000000000000000e+00  -2.7577128706993115e-09 -6.7062119624356922e-10 0.0000000000000000e+00  -2.6443125996733914e-09 -1.2681721368049539e-09 0.0000000000000000e+00  -2.4666254079594449e-09 -1.8309938680451890e-09 0.0000000000000000e+00  -2.2289438533712874e-09 -2.3441231694360103e-09 0.0000000000000000e+00  -1.9371788524503801e-09 -2.7936932661898138e-09 0.0000000000000000e+00  -1.5992013650185005e-09 -3.1673656986947308e-09 0.0000000000000000e+00  -1.2263605123192307e-09 -3.4547755448414984e-09 0.0000000000000000e+00  -8.4020374609779543e-10 -3.6476092397718722e-09 0.0000000000000000e+00  -5.0443173790411704e-10 -3.7369878131201607e-09 0.0000000000000000e+00  -4.1504670132296378e-10 -3.5618065701032259e-09 0.0000000000000000e+00  -5.1967933405975439e-10 4.4951554866831042e-09 0.0000000000000000e+00  -6.0208130931228266e-10 4.2796901509351787e-09 0.0000000000000000e+00  -9.5820142382886456e-10 4.1272966171660993e-09 0.0000000000000000e+00  -1.3566092580241556e-09 3.8719822270929204e-09 0.0000000000000000e+00  -1.7319898217047398e-09 3.5148127485329731e-09 0.0000000000000000e+00  -2.0643191754806497e-09 3.0653848381664041e-09 0.0000000000000000e+00  -2.3436854681799864e-09 2.5365270670514321e-09 0.0000000000000000e+00  -2.5635895489831437e-09 1.9430107209449961e-09 0.0000000000000000e+00  -2.7195091250994333e-09 1.3009283028302233e-09 0.0000000000000000e+00  -2.8085234898255565e-09 6.2722045487219138e-10 0.0000000000000000e+00  -2.8291607786488885e-09 -6.0698172939205760e-11 0.0000000000000000e+00  -2.7813205953295007e-09 -7.4523852258909168e-10 0.0000000000000000e+00  -2.6662555520701722e-09 -1.4088986344907758e-09 0.0000000000000000e+00  -2.4866105789005492e-09 -2.0345316454974687e-09 0.0000000000000000e+00  -2.2465172899852964e-09 -2.6056621648881485e-09 0.0000000000000000e+00  -1.9517696120491128e-09 -3.1068790079271460e-09 0.0000000000000000e+00  -1.6102828265615960e-09 -3.5243082233393378e-09 0.0000000000000000e+00  -1.2338402976689691e-09 -3.8461280936131512e-09 0.0000000000000000e+00  -8.4556722564091872e-10 -4.0627534007352781e-09 0.0000000000000000e+00  -5.1487488808169492e-10 -4.1643384424034938e-09 0.0000000000000000e+00  -4.5870838941513835e-10 -3.9879498643941963e-09 0.0000000000000000e+00  -5.7865529585663887e-10 4.9500118718867417e-09 0.0000000000000000e+00  -6.2009810745931446e-10 4.7296437335666449e-09 0.0000000000000000e+00  -9.6829111743659685e-10 4.5582840537802904e-09 0.0000000000000000e+00  -1.3649269295615559e-09 4.2725971929951461e-09 0.0000000000000000e+00  -1.7389326933067020e-09 3.8747712188529680e-09 0.0000000000000000e+00  -2.0691067764536904e-09 3.3760430166493284e-09 0.0000000000000000e+00  -2.3455276328149616e-09 2.7909840522359956e-09 0.0000000000000000e+00  -2.5620578242567955e-09 2.1360678538623468e-09 0.0000000000000000e+00  -2.7146602759972430e-09 1.4289717134861072e-09 0.0000000000000000e+00  -2.8008785992355436e-09 6.8808026423091570e-10 0.0000000000000000e+00  -2.8195762670224261e-09 -6.7865650456174951e-11 0.0000000000000000e+00  -2.7707915671148770e-09 -8.2001111153030308e-10 0.0000000000000000e+00  -2.6557019129168401e-09 -1.5495747234612119e-09 0.0000000000000000e+00  -2.4766988782484417e-09 -2.2380479297968984e-09 0.0000000000000000e+00  -2.2375646390862242e-09 -2.8674692139386364e-09 0.0000000000000000e+00  -1.9437643754906207e-09 -3.4208178537172822e-09 0.0000000000000000e+00  -1.6030578902006760e-09 -3.8825402572540520e-09 0.0000000000000000e+00  -1.2275203210881312e-09 -4.2391726295587950e-09 0.0000000000000000e+00  -8.4187292713934416e-10 -4.4796947494556107e-09 0.0000000000000000e+00  -5.2175570224278933e-10 -4.5932496137292877e-09 0.0000000000000000e+00  -5.0773501878449934e-10 -4.4162609948319006e-09 0.0000000000000000e+00  -6.4416521092101642e-10 5.3996289563019040e-09 0.0000000000000000e+00  -6.3283704382114658e-10 5.1776894909391442e-09 0.0000000000000000e+00  -9.6499802611986593e-10 4.9868944801386123e-09 0.0000000000000000e+00  -1.3523678233945314e-09 4.6700172027772749e-09 0.0000000000000000e+00  -1.7176758633590541e-09 4.2306554671521220e-09 0.0000000000000000e+00  -2.0386504697708685e-09 3.6819633713397326e-09 0.0000000000000000e+00  -2.3056614947434775e-09 3.0404916236361957e-09 0.0000000000000000e+00  -2.5132948204721014e-09 2.3245582795955751e-09 0.0000000000000000e+00  -2.6583495154385935e-09 1.5534393596135696e-09 0.0000000000000000e+00  -2.7391191416421395e-09 7.4684741346837855e-10 0.0000000000000000e+00  -2.7549811399931514e-09 -7.5367913615030949e-11 0.0000000000000000e+00  -2.7061591528437496e-09 -8.9335416846158746e-10 0.0000000000000000e+00  -2.5936652809995236e-09 -1.6873092192258446e-09 0.0000000000000000e+00  -2.4194270138021583e-09 -2.4375535188236264e-09 0.0000000000000000e+00  -2.1865807241853693e-09 -3.1247180486341608e-09 0.0000000000000000e+00  -1.8999296060029907e-09 -3.7301198607955692e-09 0.0000000000000000e+00  -1.5667645477663248e-09 -4.2363544058963489e-09 0.0000000000000000e+00  -1.1992249929837966e-09 -4.6280719426578091e-09 0.0000000000000000e+00  -8.2360488329884938e-10 -4.8925814825068772e-09 0.0000000000000000e+00  -5.2227644726516707e-10 -5.0179255374692618e-09 0.0000000000000000e+00  -5.6226834809836828e-10 -4.8419721077248518e-09 0.0000000000000000e+00  -7.1644816162209168e-10 5.8340056647298199e-09 0.0000000000000000e+00  -6.3705217611213953e-10 5.6151982323880539e-09 0.0000000000000000e+00  -9.4175980638615052e-10 5.4044163804413148e-09 0.0000000000000000e+00  -1.3090364076589360e-09 5.0555034990219661e-09 0.0000000000000000e+00  -1.6550310105216825e-09 4.5739137572511975e-09 0.0000000000000000e+00  -1.95659960