<?xml version="1.0"?>
<VTKFile type="UnstructuredGrid"  version="0.1"  >
<UnstructuredGrid>
<Piece  NumberOfPoints="651" NumberOfCells="1200">
<Points>
<DataArray  type="Float64"  NumberOfComponents="3"  format="ascii">0 0 0  50000 0 0  100000 0 0  150000 0 0  200000 0 0  250000 0 0  300000 0 0  350000 0 0  400000 0 0  450000 0 0  500000 0 0  550000 0 0  600000 0 0  650000 0 0  700000 0 0  750000 0 0  800000 0 0  850000 0 0  900000 0 0  950000 0 0  1000000 0 0  0 50000 0  50000 50000 0  100000 50000 0  150000 50000 0  200000 50000 0  250000 50000 0  300000 50000 0  350000 50000 0  400000 50000 0  450000 50000 0  500000 50000 0  550000 50000 0  600000 50000 0  650000 50000 0  700000 50000 0  750000 50000 0  800000 50000 0  850000 50000 0  900000 50000 0  950000 50000 0  1000000 50000 0  0 100000 0  50000 100000 0  100000 100000 0  150000 100000 0  200000 100000 0  250000 100000 0  300000 100000 0  350000 100000 0  400000 100000 0  450000 100000 0  500000 100000 0  550000 100000 0  600000 100000 0  650000 100000 0  700000 100000 0  750000 100000 0  800000 100000 0  850000 100000 0  900000 100000 0  950000 100000 0  1000000 100000 0  0 150000 0  50000 150000 0  100000 150000 0  150000 150000 0  200000 150000 0  250000 150000 0  300000 150000 0  350000 150000 0  400000 150000 0  450000 150000 0  500000 150000 0  550000 150000 0  600000 150000 0  650000 150000 0  700000 150000 0  750000 150000 0  800000 150000 0  850000 150000 0  900000 150000 0  950000 150000 0  1000000 150000 0  0 200000 0  50000 200000 0  100000 200000 0  150000 200000 0  200000 200000 0  250000 200000 0  300000 200000 0  350000 200000 0  400000 200000 0  450000 200000 0  500000 200000 0  550000 200000 0  600000 200000 0  650000 200000 0  700000 200000 0  750000 200000 0  800000 200000 0  850000 200000 0  900000 200000 0  950000 200000 0  1000000 200000 0  0 250000 0  50000 250000 0  100000 250000 0  150000 250000 0  200000 250000 0  250000 250000 0  300000 250000 0  350000 250000 0  400000 250000 0  450000 250000 0  500000 250000 0  550000 250000 0  600000 250000 0  650000 250000 0  700000 250000 0  750000 250000 0  800000 250000 0  850000 250000 0  900000 250000 0  950000 250000 0  1000000 250000 0  0 300000 0  50000 300000 0  100000 300000 0  150000 300000 0  200000 300000 0  250000 300000 0  300000 300000 0  350000 300000 0  400000 300000 0  450000 300000 0  500000 300000 0  550000 300000 0  600000 300000 0  650000 300000 0  700000 300000 0  750000 300000 0  800000 300000 0  850000 300000 0  900000 300000 0  950000 300000 0  1000000 300000 0  0 350000 0  50000 350000 0  100000 350000 0  150000 350000 0  200000 350000 0  250000 350000 0  300000 350000 0  350000 350000 0  400000 350000 0  450000 350000 0  500000 350000 0  550000 350000 0  600000 350000 0  650000 350000 0  700000 350000 0  750000 350000 0  800000 350000 0  850000 350000 0  900000 350000 0  950000 350000 0  1000000 350000 0  0 400000 0  50000 400000 0  100000 400000 0  150000 400000 0  200000 400000 0  250000 400000 0  300000 400000 0  350000 400000 0  400000 400000 0  450000 400000 0  500000 400000 0  550000 400000 0  600000 400000 0  650000 400000 0  700000 400000 0  750000 400000 0  800000 400000 0  850000 400000 0  900000 400000 0  950000 400000 0  1000000 400000 0  0 450000 0  50000 450000 0  100000 450000 0  150000 450000 0  200000 450000 0  250000 450000 0  300000 450000 0  350000 450000 0  400000 450000 0  450000 450000 0  500000 450000 0  550000 450000 0  600000 450000 0  650000 450000 0  700000 450000 0  750000 450000 0  800000 450000 0  850000 450000 0  900000 450000 0  950000 450000 0  1000000 450000 0  0 500000 0  50000 500000 0  100000 500000 0  150000 500000 0  200000 500000 0  250000 500000 0  300000 500000 0  350000 500000 0  400000 500000 0  450000 500000 0  500000 500000 0  550000 500000 0  600000 500000 0  650000 500000 0  700000 500000 0  750000 500000 0  800000 500000 0  850000 500000 0  900000 500000 0  950000 500000 0  1000000 500000 0  0 550000 0  50000 550000 0  100000 550000 0  150000 550000 0  200000 550000 0  250000 550000 0  300000 550000 0  350000 550000 0  400000 550000 0  450000 550000 0  500000 550000 0  550000 550000 0  600000 550000 0  650000 550000 0  700000 550000 0  750000 550000 0  800000 550000 0  850000 550000 0  900000 550000 0  950000 550000 0  1000000 550000 0  0 600000 0  50000 600000 0  100000 600000 0  150000 600000 0  200000 600000 0  250000 600000 0  300000 600000 0  350000 600000 0  400000 600000 0  450000 600000 0  500000 600000 0  550000 600000 0  600000 600000 0  650000 600000 0  700000 600000 0  750000 600000 0  800000 600000 0  850000 600000 0  900000 600000 0  950000 600000 0  1000000 600000 0  0 650000 0  50000 650000 0  100000 650000 0  150000 650000 0  200000 650000 0  250000 650000 0  300000 650000 0  350000 650000 0  400000 650000 0  450000 650000 0  500000 650000 0  550000 650000 0  600000 650000 0  650000 650000 0  700000 650000 0  750000 650000 0  800000 650000 0  850000 650000 0  900000 650000 0  950000 650000 0  1000000 650000 0  0 700000 0  50000 700000 0  100000 700000 0  150000 700000 0  200000 700000 0  250000 700000 0  300000 700000 0  350000 700000 0  400000 700000 0  450000 700000 0  500000 700000 0  550000 700000 0  600000 700000 0  650000 700000 0  700000 700000 0  750000 700000 0  800000 700000 0  850000 700000 0  900000 700000 0  950000 700000 0  1000000 700000 0  0 750000 0  50000 750000 0  100000 750000 0  150000 750000 0  200000 750000 0  250000 750000 0  300000 750000 0  350000 750000 0  400000 750000 0  450000 750000 0  500000 750000 0  550000 750000 0  600000 750000 0  650000 750000 0  700000 750000 0  750000 750000 0  800000 750000 0  850000 750000 0  900000 750000 0  950000 750000 0  1000000 750000 0  0 800000 0  50000 800000 0  100000 800000 0  150000 800000 0  200000 800000 0  250000 800000 0  300000 800000 0  350000 800000 0  400000 800000 0  450000 800000 0  500000 800000 0  550000 800000 0  600000 800000 0  650000 800000 0  700000 800000 0  750000 800000 0  800000 800000 0  850000 800000 0  900000 800000 0  950000 800000 0  1000000 800000 0  0 850000 0  50000 850000 0  100000 850000 0  150000 850000 0  200000 850000 0  250000 850000 0  300000 850000 0  350000 850000 0  400000 850000 0  450000 850000 0  500000 850000 0  550000 850000 0  600000 850000 0  650000 850000 0  700000 850000 0  750000 850000 0  800000 850000 0  850000 850000 0  900000 850000 0  950000 850000 0  1000000 850000 0  0 900000 0  50000 900000 0  100000 900000 0  150000 900000 0  200000 900000 0  250000 900000 0  300000 900000 0  350000 900000 0  400000 900000 0  450000 900000 0  500000 900000 0  550000 900000 0  600000 900000 0  650000 900000 0  700000 900000 0  750000 900000 0  800000 900000 0  850000 900000 0  900000 900000 0  950000 900000 0  1000000 900000 0  0 950000 0  50000 950000 0  100000 950000 0  150000 950000 0  200000 950000 0  250000 950000 0  300000 950000 0  350000 950000 0  400000 950000 0  450000 950000 0  500000 950000 0  550000 950000 0  600000 950000 0  650000 950000 0  700000 950000 0  750000 950000 0  800000 950000 0  850000 950000 0  900000 950000 0  950000 950000 0  1000000 950000 0  0 1000000 0  50000 1000000 0  100000 1000000 0  150000 1000000 0  200000 1000000 0  250000 1000000 0  300000 1000000 0  350000 1000000 0  400000 1000000 0  450000 1000000 0  500000 1000000 0  550000 1000000 0  600000 1000000 0  650000 1000000 0  700000 1000000 0  750000 1000000 0  800000 1000000 0  850000 1000000 0  900000 1000000 0  950000 1000000 0  1000000 1000000 0  0 1050000 0  50000 1050000 0  100000 1050000 0  150000 1050000 0  200000 1050000 0  250000 1050000 0  300000 1050000 0  350000 1050000 0  400000 1050000 0  450000 1050000 0  500000 1050000 0  550000 1050000 0  600000 1050000 0  650000 1050000 0  700000 1050000 0  750000 1050000 0  800000 1050000 0  850000 1050000 0  900000 1050000 0  950000 1050000 0  1000000 1050000 0  0 1100000 0  50000 1100000 0  100000 1100000 0  150000 1100000 0  200000 1100000 0  250000 1100000 0  300000 1100000 0  350000 1100000 0  400000 1100000 0  450000 1100000 0  500000 1100000 0  550000 1100000 0  600000 1100000 0  650000 1100000 0  700000 1100000 0  750000 1100000 0  800000 1100000 0  850000 1100000 0  900000 1100000 0  950000 1100000 0  1000000 1100000 0  0 1150000 0  50000 1150000 0  100000 1150000 0  150000 1150000 0  200000 1150000 0  250000 1150000 0  300000 1150000 0  350000 1150000 0  400000 1150000 0  450000 1150000 0  500000 1150000 0  550000 1150000 0  600000 1150000 0  650000 1150000 0  700000 1150000 0  750000 1150000 0  800000 1150000 0  850000 1150000 0  900000 1150000 0  950000 1150000 0  1000000 1150000 0  0 1200000 0  50000 1200000 0  100000 1200000 0  150000 1200000 0  200000 1200000 0  250000 1200000 0  300000 1200000 0  350000 1200000 0  400000 1200000 0  450000 1200000 0  500000 1200000 0  550000 1200000 0  600000 1200000 0  650000 1200000 0  700000 1200000 0  750000 1200000 0  800000 1200000 0  850000 1200000 0  900000 1200000 0  950000 1200000 0  1000000 1200000 0  0 1250000 0  50000 1250000 0  100000 1250000 0  150000 1250000 0  200000 1250000 0  250000 1250000 0  300000 1250000 0  350000 1250000 0  400000 1250000 0  450000 1250000 0  500000 1250000 0  550000 1250000 0  600000 1250000 0  650000 1250000 0  700000 1250000 0  750000 1250000 0  800000 1250000 0  850000 1250000 0  900000 1250000 0  950000 1250000 0  1000000 1250000 0  0 1300000 0  50000 1300000 0  100000 1300000 0  150000 1300000 0  200000 1300000 0  250000 1300000 0  300000 1300000 0  350000 1300000 0  400000 1300000 0  450000 1300000 0  500000 1300000 0  550000 1300000 0  600000 1300000 0  650000 1300000 0  700000 1300000 0  750000 1300000 0  800000 1300000 0  850000 1300000 0  900000 1300000 0  950000 1300000 0  1000000 1300000 0  0 1350000 0  50000 1350000 0  100000 1350000 0  150000 1350000 0  200000 1350000 0  250000 1350000 0  300000 1350000 0  350000 1350000 0  400000 1350000 0  450000 1350000 0  500000 1350000 0  550000 1350000 0  600000 1350000 0  650000 1350000 0  700000 135
[...]
<PointData  Vectors="f_15"> 
<DataArray  type="Float64"  Name="f_15"  NumberOfComponents="3" format="ascii">-3.2666029343466037e-10 2.8859801909565805e-10 0.0000000000000000e+00  -6.0061057638833201e-10 2.3666247745622567e-10 0.0000000000000000e+00  -1.0868686768267183e-09 2.1592547135306100e-10 0.0000000000000000e+00  -1.5564604155221833e-09 1.9764758570234283e-10 0.0000000000000000e+00  -1.9863556888401304e-09 1.7592828345766358e-10 0.0000000000000000e+00  -2.3640535606628356e-09 1.5024357941060296e-10 0.0000000000000000e+00  -2.6793910311676271e-09 1.2091231732417744e-10 0.0000000000000000e+00  -2.9241456911275292e-09 8.8536857316566144e-11 0.0000000000000000e+00  -3.0920299342965560e-09 5.3879209336116927e-11 0.0000000000000000e+00  -3.1788040088706438e-09 1.7795267330484295e-11 0.0000000000000000e+00  -3.1823681071694393e-09 -1.8808440470215542e-11 0.0000000000000000e+00  -3.1028067484609339e-09 -5.5008388376623959e-11 0.0000000000000000e+00  -2.9423807177059141e-09 -8.9894044189300110e-11 0.0000000000000000e+00  -2.7054667280033133e-09 -1.2259732126026948e-10 0.0000000000000000e+00  -2.3984556415373011e-09 -1.5232561391452515e-10 0.0000000000000000e+00  -2.0296754854664451e-09 -1.7841239079740878e-10 0.0000000000000000e+00  -1.6096867019249504e-09 -2.0043737601234509e-10 0.0000000000000000e+00  -1.1535411303660074e-09 -2.1856158580572119e-10 0.0000000000000000e+00  -6.9145619054477773e-10 -2.3320172158373178e-10 0.0000000000000000e+00  -3.1415520794142176e-10 -2.2637889465227099e-10 0.0000000000000000e+00  -1.5532539909524836e-10 -1.4365204961244810e-10 0.0000000000000000e+00  -2.7746765166042492e-10 5.4079445759120029e-10 0.0000000000000000e+00  -4.9687415621648682e-10 4.8786687110485161e-10 0.0000000000000000e+00  -8.8018085410451954e-10 5.0123041853108455e-10 0.0000000000000000e+00  -1.3065168680208052e-09 4.7656719136985983e-10 0.0000000000000000e+00  -1.7126265137257624e-09 4.3354827882152148e-10 0.0000000000000000e+00  -2.0777719951568188e-09 3.7717193022881730e-10 0.0000000000000000e+00  -2.3902900238129272e-09 3.1015626735082156e-10 0.0000000000000000e+00  -2.6412681280080230e-09 2.3473735681407162e-10 0.0000000000000000e+00  -2.8238595312147850e-09 1.5310357514298801e-10 0.0000000000000000e+00  -2.9332316388520177e-09 6.7500735971101978e-11 0.0000000000000000e+00  -2.9665906076878902e-09 -1.9768189785296043e-11 0.0000000000000000e+00  -2.9232088966279829e-09 -1.0637699086291547e-10 0.0000000000000000e+00  -2.8044294169420261e-09 -1.9001992898991885e-10 0.0000000000000000e+00  -2.6136393782324464e-09 -2.6845524982916183e-10 0.0000000000000000e+00  -2.3562240245934010e-09 -3.3953976269671598e-10 0.0000000000000000e+00  -2.0395474434842024e-09 -4.0123817304391869e-10 0.0000000000000000e+00  -1.6731428022710533e-09 -4.5155158618831824e-10 0.0000000000000000e+00  -1.2698759636170608e-09 -4.8805821990596952e-10 0.0000000000000000e+00  -8.5134233991690946e-10 -5.0513159448737329e-10 0.0000000000000000e+00  -4.7116350372935830e-10 -4.8132945104835368e-10 0.0000000000000000e+00  -2.4589756599687600e-10 -2.9070913812350621e-10 0.0000000000000000e+00  -2.7071966075787695e-10 9.8886997437849093e-10 0.0000000000000000e+00  -5.0721156521957312e-10 8.6807188764578403e-10 0.0000000000000000e+00  -8.7267000375050157e-10 8.7565126624929266e-10 0.0000000000000000e+00  -1.2639152844806930e-09 8.3701745146423674e-10 0.0000000000000000e+00  -1.6386066543380006e-09 7.6556541909806815e-10 0.0000000000000000e+00  -1.9778016866068954e-09 6.6912563221173570e-10 0.0000000000000000e+00  -2.2691071504404288e-09 5.5296270756681855e-10 0.0000000000000000e+00  -2.5035392911794935e-09 4.2137544646225724e-10 0.0000000000000000e+00  -2.6743796026523334e-09 2.7842519172325670e-10 0.0000000000000000e+00  -2.7769316021393789e-09 1.2818539814920474e-10 0.0000000000000000e+00  -2.8084914647637885e-09 -2.5210981061574378e-11 0.0000000000000000e+00  -2.7683503004319913e-09 -1.7760288222795436e-10 0.0000000000000000e+00  -2.6577887065786334e-09 -3.2485903456361998e-10 0.0000000000000000e+00  -2.4800546205949607e-09 -4.6293612960918284e-10 0.0000000000000000e+00  -2.2403324960992460e-09 -5.8791324559637796e-10 0.0000000000000000e+00  -1.9457439768072713e-09 -6.9595962664957271e-10 0.0000000000000000e+00  -1.6055241878514241e-09 -7.8312770543249674e-10 0.0000000000000000e+00  -1.2319099341720052e-09 -8.4467274771442778e-10 0.0000000000000000e+00  -8.4376230083372206e-10 -8.7309533122079564e-10 0.0000000000000000e+00  -4.8438122362893936e-10 -8.5464081740680738e-10 0.0000000000000000e+00  -2.6090751394025474e-10 -6.3552534218242154e-10 0.0000000000000000e+00  -2.7874626731531979e-10 1.4303021430383677e-09 0.0000000000000000e+00  -5.0593051044003830e-10 1.2844658123652168e-09 0.0000000000000000e+00  -8.6577401032656251e-10 1.2694171510286401e-09 0.0000000000000000e+00  -1.2437813392616240e-09 1.2099316287940443e-09 0.0000000000000000e+00  -1.6014447249864711e-09 1.1079574631342887e-09 0.0000000000000000e+00  -1.9238096484430501e-09 9.7054900710319412e-10 0.0000000000000000e+00  -2.2003796687808671e-09 8.0431277617282593e-10 0.0000000000000000e+00  -2.4228143679719832e-09 6.1533545217054412e-10 0.0000000000000000e+00  -2.5847019451617968e-09 4.0955099885940211e-10 0.0000000000000000e+00  -2.6815363079659833e-09 1.9292780853745233e-10 0.0000000000000000e+00  -2.7107252441574128e-09 -2.8491986551334677e-11 0.0000000000000000e+00  -2.6715987243602235e-09 -2.4863385034648563e-10 0.0000000000000000e+00  -2.5654013435566380e-09 -4.6146590325694751e-10 0.0000000000000000e+00  -2.3952634964727639e-09 -6.6107728855928669e-10 0.0000000000000000e+00  -2.1661526898513348e-09 -8.4173320558380283e-10 0.0000000000000000e+00  -1.8848212046808783e-09 -9.9787226624265073e-10 0.0000000000000000e+00  -1.5598290834921086e-09 -1.1239988649117612e-09 0.0000000000000000e+00  -1.2020318941450508e-09 -1.2144479606721001e-09 0.0000000000000000e+00  -8.2750393462725881e-10 -1.2630569116460270e-09 0.0000000000000000e+00  -4.7646996721253904e-10 -1.2623678746943094e-09 0.0000000000000000e+00  -2.6410194722018205e-10 -1.0550639189765021e-09 0.0000000000000000e+00  -2.9480717955762586e-10 1.8625817675157519e-09 0.0000000000000000e+00  -5.0690952789473573e-10 1.7025790583455859e-09 0.0000000000000000e+00  -8.6312014869328703e-10 1.6644581174890221e-09 0.0000000000000000e+00  -1.2369241268462313e-09 1.5794219774674795e-09 0.0000000000000000e+00  -1.5879132556722988e-09 1.4449448827807469e-09 0.0000000000000000e+00  -1.9022799164958700e-09 1.2664095162297605e-09 0.0000000000000000e+00  -2.1708986808733616e-09 1.0508425122710929e-09 0.0000000000000000e+00  -2.3863322763359507e-09 8.0563100432183605e-10 0.0000000000000000e+00  -2.5426687238197169e-09 5.3835508222694101e-10 0.0000000000000000e+00  -2.6356763719843495e-09 2.5677056543064880e-10 0.0000000000000000e+00  -2.6629095440674281e-09 -3.1234071240179545e-11 0.0000000000000000e+00  -2.6237531243300572e-09 -3.1772153943519162e-10 0.0000000000000000e+00  -2.5194238042233906e-09 -5.9481388098033295e-10 0.0000000000000000e+00  -2.3529341204655743e-09 -8.5480681905083224e-10 0.0000000000000000e+00  -2.1290185361736274e-09 -1.0902753489852560e-09 0.0000000000000000e+00  -1.8540272621246548e-09 -1.2941626690573358e-09 0.0000000000000000e+00  -1.5358630193105775e-09 -1.4598708836180078e-09 0.0000000000000000e+00  -1.1844382574203072e-09 -1.5814499260032273e-09 0.0000000000000000e+00  -8.1513065465661859e-10 -1.6538775769636554e-09 0.0000000000000000e+00  -4.7018384003727190e-10 -1.6717807367383722e-09 0.0000000000000000e+00  -2.7474305252418234e-10 -1.4787059462993738e-09 0.0000000000000000e+00  -3.1747505978344013e-10 2.2910183500001569e-09 0.0000000000000000e+00  -5.1324052080218034e-10 2.1199147280016989e-09 0.0000000000000000e+00  -8.6768730972664704e-10 2.0606648276904079e-09 0.0000000000000000e+00  -1.2420197933245323e-09 1.9481547709883511e-09 0.0000000000000000e+00  -1.5926421216477784e-09 1.7792929762265065e-09 0.0000000000000000e+00  -1.9053074353702818e-09 1.5587334720519702e-09 0.0000000000000000e+00  -2.1713776733591877e-09 1.2937641506443278e-09 0.0000000000000000e+00  -2.3840083742724113e-09 9.9277851374975979e-10 0.0000000000000000e+00  -2.5377354968840700e-09 6.6478701033523382e-10 0.0000000000000000e+00  -2.6286178213846149e-09 3.1919222928626588e-10 0.0000000000000000e+00  -2.6543771315153965e-09 -3.4369080338206848e-11 0.0000000000000000e+00  -2.6144698125339551e-09 -3.8617752131250239e-10 0.0000000000000000e+00  -2.5100997381469255e-09 -7.2658908017007423e-10 0.0000000000000000e+00  -2.3441819019092204e-09 -1.0461997114927607e-09 0.0000000000000000e+00  -2.1212590890366990e-09 -1.3360170802045704e-09 0.0000000000000000e+00  -1.8473853531617233e-09 -1.5876506814462628e-09 0.0000000000000000e+00  -1.5300897384838966e-09 -1.7935576748436935e-09 0.0000000000000000e+00  -1.1790357795570722e-09 -1.9474140966987946e-09 0.0000000000000000e+00  -8.1022648552061544e-10 -2.0443849355319761e-09 0.0000000000000000e+00  -4.6933154763555121e-10 -2.0791254788713858e-09 0.0000000000000000e+00  -2.9190000215160947e-10 -1.8960455474379000e-09 0.0000000000000000e+00  -3.4625446596381555e-10 2.7204327109879508e-09 0.0000000000000000e+00  -5.2495353142880028e-10 2.5392609965059946e-09 0.0000000000000000e+00  -8.7959958816881338e-10 2.4603577739811882e-09 0.0000000000000000e+00  -1.2575489146504462e-09 2.3198745669459827e-09 0.0000000000000000e+00  -1.6116655274686208e-09 2.1152662891898333e-09 0.0000000000000000e+00  -1.9267053013181806e-09 1.8514565931446562e-09 0.0000000000000000e+00  -2.1939603056442221e-09 1.5362774238256056e-09 0.0000000000000000e+00  -2.4068291910077111e-09 1.1791045485258045e-09 0.0000000000000000e+00  -2.5601385868515656e-09 7.9027577841340565e-10 0.0000000000000000e+00  -2.6501848009213211e-09 3.8073696156972718e-10 0.0000000000000000e+00  -2.6748488882994241e-09 -3.8216783088252968e-11 0.0000000000000000e+00  -2.6336676592611887e-09 -4.5516384425498109e-10 0.0000000000000000e+00  -2.5278515842421024e-09 -8.5876962926768194e-10 0.0000000000000000e+00  -2.3602549986248246e-09 -1.2380048023878977e-09 0.0000000000000000e+00  -2.1353040566102140e-09 -1.5823803170519577e-09 0.0000000000000000e+00  -1.8589093118713400e-09 -1.8822167178112396e-09 0.0000000000000000e+00  -1.5385146462869148e-09 -2.1289747412439907e-09 0.0000000000000000e+00  -1.1839978559952256e-09 -2.3156621181664592e-09 0.0000000000000000e+00  -8.1252604227109595e-10 -2.4369687837013831e-09 0.0000000000000000e+00  -4.7364430407103924e-10 -2.4868718494698181e-09 0.0000000000000000e+00  -3.1469445802624494e-10 -2.3095134891395873e-09 0.0000000000000000e+00  -3.8096096667102354e-10 3.1544444188567247e-09 0.0000000000000000e+00  -5.4114165589893159e-10 2.9636280047941852e-09 0.0000000000000000e+00  -8.9733310154047055e-10 2.8659586131961553e-09 0.0000000000000000e+00  -1.2808560255077452e-09 2.6973068820323470e-09 0.0000000000000000e+00  -1.6406924923330232e-09 2.4559350762926676e-09 0.0000000000000000e+00  -1.9604371856884993e-09 2.1475887829969733e-09 0.0000000000000000e+00  -2.2310688469534916e-09 1.7809905454301388e-09 0.0000000000000000e+00  -2.4460135078225893e-09 1.3666249698081820e-09 0.0000000000000000e+00  -2.6002541145693324e-09 9.1616204994007263e-10 0.0000000000000000e+00  -2.6902620640454151e-09 4.4204468034437795e-10 0.0000000000000000e+00  -2.7140580573223714e-09 -4.2837235574578489e-11 0.0000000000000000e+00  -2.6712610559783871e-09 -5.2542623546726212e-10 0.0000000000000000e+00  -2.5631032244941118e-09 -9.9275808936211095e-10 0.0000000000000000e+00  -2.3924112475551957e-09 -1.4322252858509810e-09 0.0000000000000000e+00  -2.1635604846060448e-09 -1.8318616024317541e-09 0.0000000000000000e+00  -1.8824372355748555e-09 -2.1806647116776169e-09 0.0000000000000000e+00  -1.5565850717197003e-09 -2.4689688984975171e-09 0.0000000000000000e+00  -1.1963216471998600e-09 -2.6888477617737476e-09 0.0000000000000000e+00  -8.2018272314558431e-10 -2.8341625699872529e-09 0.0000000000000000e+00  -4.8196781165047658e-10 -2.8980076603772505e-09 0.0000000000000000e+00  -3.4279124569905315e-10 -2.7231577581924733e-09 0.0000000000000000e+00  -4.2157341256457559e-10 3.5951459428089102e-09 0.0000000000000000e+00  -5.6049372463993887e-10 3.3951091041838564e-09 0.0000000000000000e+00  -9.1846307555129561e-10 3.2790805336515337e-09 0.0000000000000000e+00  -1.3082884876382661e-09 3.0819765189538712e-09 0.0000000000000000e+00  -1.6746396320364590e-09 2.8029132968646335e-09 0.0000000000000000e+00  -1.9998994766943545e-09 2.4487422141063174e-09 0.0000000000000000e+00  -2.2746736331658955e-09 2.0293507295845878e-09 0.0000000000000000e+00  -2.4923393016033443e-09 1.5564968063130209e-09 0.0000000000000000e+00  -2.6479788370108464e-09 1.0432455654180752e-09 0.0000000000000000e+00  -2.7382112317572084e-09 5.0353226241177066e-10 0.0000000000000000e+00  -2.7611895648425454e-09 -4.8200136459606848e-11 0.0000000000000000e+00  -2.7166159895570355e-09 -5.9731403570138822e-10 0.0000000000000000e+00  -2.6057482160156049e-09 -1.1292666262244355e-09 0.0000000000000000e+00  -2.4313951453698174e-09 -1.6299013319205778e-09 0.0000000000000000e+00  -2.1979068015662803e-09 -2.0857640870918380e-09 0.0000000000000000e+00  -1.9111956328819290e-09 -2.4844606511766546e-09 0.0000000000000000e+00  -1.5789785378589635e-09 -2.8150577904968608e-09 0.0000000000000000e+00  -1.2120916995051382e-09 -3.0684936099898122e-09 0.0000000000000000e+00  -8.3053827360523388e-10 -3.2376114991088941e-09 0.0000000000000000e+00  -4.9282062214608260e-10 -3.3145740518885941e-09 0.0000000000000000e+00  -3.7608038515024316e-10 -3.1400680881333336e-09 0.0000000000000000e+00  -4.6816747906280777e-10 4.0428925636621541e-09 0.0000000000000000e+00  -5.8141205592366111e-10 3.8344089633752511e-09 0.0000000000000000e+00  -9.3990068782500158e-10 3.7000756362647108e-09 0.0000000000000000e+00  -1.3352757521947962e-09 3.4740527899239625e-09 0.0000000000000000e+00  -1.7074118898499351e-09 3.1563416568512070e-09 0.0000000000000000e+00  -2.0374629172314946e-09 2.7550779821487477e-09 0.0000000000000000e+00  -2.3157055535922484e-09 2.2815227796143802e-09 0.0000000000000000e+00  -2.5355052871095852e-09 1.7488637046256738e-09 0.0000000000000000e+00  -2.6920763237756078e-09 1.1716392003376748e-09 0.0000000000000000e+00  -2.7822156815017656e-09 5.6528526681711513e-10 0.0000000000000000e+00  -2.8042313550802215e-09 -5.4241470586213679e-11 0.0000000000000000e+00  -2.7579154961908041e-09 -6.7078462903809853e-10 0.0000000000000000e+00  -2.6445392846287647e-09 -1.2682802210390367e-09 0.0000000000000000e+00  -2.4668668634481258e-09 -1.8310521243387843e-09 0.0000000000000000e+00  -2.2291903317128659e-09 -2.3441402829349445e-09 0.0000000000000000e+00  -1.9374194452590072e-09 -2.7936807764825306e-09 0.0000000000000000e+00  -1.5994232870200810e-09 -3.1673382624965833e-09 0.0000000000000000e+00  -1.2265477152139655e-09 -3.4547524816560104e-09 0.0000000000000000e+00  -8.4032953024363861e-10 -3.6476211301978146e-09 0.0000000000000000e+00  -5.0447345152576957e-10 -3.7371622302696706e-09 0.0000000000000000e+00  -4.1456157943418744e-10 -3.5617755436133777e-09 0.0000000000000000e+00  -5.2088006728730892e-10 4.4960520860035898e-09 0.0000000000000000e+00  -6.0200284803639034e-10 4.2805044186203348e-09 0.0000000000000000e+00  -9.5790069401437880e-10 4.1276730997248762e-09 0.0000000000000000e+00  -1.3562628120950456e-09 3.8720965339932843e-09 0.0000000000000000e+00  -1.7316742942704777e-09 3.5147449472420832e-09 0.0000000000000000e+00  -2.0640671745649975e-09 3.0652011998287456e-09 0.0000000000000000e+00  -2.3435097789905387e-09 2.5362821649584010e-09 0.0000000000000000e+00  -2.5634914313910611e-09 1.9427468985604174e-09 0.0000000000000000e+00  -2.7194832803851642e-09 1.3006760449323215e-09 0.0000000000000000e+00  -2.8085613421274662e-09 6.2699973421460004e-10 0.0000000000000000e+00  -2.8292524488214540e-09 -6.0876134139088163e-11 0.0000000000000000e+00  -2.7814558787756675e-09 -7.4536951595518443e-10 0.0000000000000000e+00  -2.6664242080554600e-09 -1.4089839951746370e-09 0.0000000000000000e+00  -2.4868021933549265e-09 -2.0345771450071256e-09 0.0000000000000000e+00  -2.2467209161588779e-09 -2.6056772828891925e-09 0.0000000000000000e+00  -1.9519733374519386e-09 -3.1068765731775239e-09 0.0000000000000000e+00  -1.6104732955508157e-09 -3.5243044964498398e-09 0.0000000000000000e+00  -1.2340016237493234e-09 -3.8461440418353896e-09 0.0000000000000000e+00  -8.4567471205710557e-10 -4.0628211647419845e-09 0.0000000000000000e+00  -5.1491906977699294e-10 -4.1645903946099866e-09 0.0000000000000000e+00  -4.5830054911936385e-10 -3.9879990602812110e-09 0.0000000000000000e+00  -5.7988889807951100e-10 4.9506733711292626e-09 0.0000000000000000e+00  -6.2001492535357559e-10 4.7302911221019741e-09 0.0000000000000000e+00  -9.6795921623974041e-10 4.5586000467096215e-09 0.0000000000000000e+00  -1.3645323191949897e-09 4.2727160940860227e-09 0.0000000000000000e+00  -1.7385530911215503e-09 3.8747483576047660e-09 0.0000000000000000e+00  -2.0687781869395372e-09 3.3759258652240936e-09 0.0000000000000000e+00  -2.3452675395003522e-09 2.7908138061852436e-09 0.0000000000000000e+00  -2.5618722782231836e-09 2.1358781709450813e-09 0.0000000000000000e+00  -2.7145480398231987e-09 1.4287879995918260e-09 0.0000000000000000e+00  -2.8008340664466739e-09 6.8791986438889350e-10 0.0000000000000000e+00  -2.8195914196904582e-09 -6.7992693911326840e-11 0.0000000000000000e+00  -2.7708571340373308e-09 -8.2010108443991587e-10 0.0000000000000000e+00  -2.6558079196895107e-09 -1.5496292890575413e-09 0.0000000000000000e+00  -2.4768347819068410e-09 -2.2380733327352324e-09 0.0000000000000000e+00  -2.2377192182761410e-09 -2.8674756930106832e-09 0.0000000000000000e+00  -1.9439255106689443e-09 -3.4208192830371837e-09 0.0000000000000000e+00  -1.6032122649119259e-09 -3.8825541147112418e-09 0.0000000000000000e+00  -1.2276525750912703e-09 -4.2392210968120187e-09 0.0000000000000000e+00  -8.4196048575203109e-10 -4.4798111539662173e-09 0.0000000000000000e+00  -5.2180187025713091e-10 -4.5935702534761181e-09 0.0000000000000000e+00  -5.0740702192720031e-10 -4.4163845209852510e-09 0.0000000000000000e+00  -6.4540241558565067e-10 5.4000558829540774e-09 0.0000000000000000e+00  -6.3275218782160574e-10 5.1781633137288151e-09 0.0000000000000000e+00  -9.6464837820375579e-10 4.9871372879538351e-09 0.0000000000000000e+00  -1.3519434924505840e-09 4.6701260410804877e-09 0.0000000000000000e+00  -1.7172531579959096e-09 4.2306640585260397e-09 0.0000000000000000e+00  -2.0382665502066806e-09 3.6819024450584667e-09 0.0000000000000000e+00  -2.3053365935511514e-09 3.0403898472690049e-09 0.0000000000000000e+00  -2.5130383878554796e-09 2.3244405124760062e-09 0.0000000000000000e+00  -2.6581636400179555e-09 1.5533252498658205e-09 0.0000000000000000e+00  -2.7390010434797597e-09 7.4675079115070577e-10 0.0000000000000000e+00  -2.7549249654375479e-09 -7.5439037751244237e-11 0.0000000000000000e+00  -2.7061571541217041e-09 -8.9339725936202468e-10 0.0000000000000000e+00  -2.5937084913019862e-09 -1.6873267362414767e-09 0.0000000000000000e+00  -2.4195055491172431e-09 -2.4375524293967831e-09 0.0000000000000000e+00  -2.1866838426528529e-09 -3.1247094070892686e-09 0.0000000000000000e+00  -1.9000456354148472e-09 -3.7301184929213124e-09 0.0000000000000000e+00  -1.5668807094174600e-09 -4.2363788246080300e-09 0.0000000000000000e+00  -1.1993267569573653e-09 -4.6281453508731555e-09 0.0000000000000000e+00  -8.2367191576287100e-10 -4.8927382483790962e-09 0.0000000000000000e+00  -5.2232434379287789e-10 -5.0183051353829794e-09 0.0000000000000000e+00  -5.6202133177476317e-10 -4.8421633729909272e-09 0.0000000000000000e+00  -7.1766028838651631e-10 5.8342047371425463e-09 0.0000000000000000e+00  -6.3696885031614643e-10 5.6154983266844720e-09 0.0000000000000000e+00  -9.4140542382355204e-10 5.4045781883156634e-09 0.0000000000000000e+00  -1.3085996111235232e-09 5.0555908462403832e-09 0.0000000000000000e+00  -1.6545846386531821e-09 4.5739416240720499e-09 0.0000000000000000e+00  -1.95618029