<?xml version="1.0"?>
<VTKFile type="UnstructuredGrid"  version="0.1"  >
<UnstructuredGrid>
<Piece  NumberOfPoints="651" NumberOfCells="1200">
<Points>
<DataArray  type="Float64"  NumberOfComponents="3"  format="ascii">0 0 0  50000 0 0  100000 0 0  150000 0 0  200000 0 0  250000 0 0  300000 0 0  350000 0 0  400000 0 0  450000 0 0  500000 0 0  550000 0 0  600000 0 0  650000 0 0  700000 0 0  750000 0 0  800000 0 0  850000 0 0  900000 0 0  950000 0 0  1000000 0 0  0 50000 0  50000 50000 0  100000 50000 0  150000 50000 0  200000 50000 0  250000 50000 0  300000 50000 0  350000 50000 0  400000 50000 0  450000 50000 0  500000 50000 0  550000 50000 0  600000 50000 0  650000 50000 0  700000 50000 0  750000 50000 0  800000 50000 0  850000 50000 0  900000 50000 0  950000 50000 0  1000000 50000 0  0 100000 0  50000 100000 0  100000 100000 0  150000 100000 0  200000 100000 0  250000 100000 0  300000 100000 0  350000 100000 0  400000 100000 0  450000 100000 0  500000 100000 0  550000 100000 0  600000 100000 0  650000 100000 0  700000 100000 0  750000 100000 0  800000 100000 0  850000 100000 0  900000 100000 0  950000 100000 0  1000000 100000 0  0 150000 0  50000 150000 0  100000 150000 0  150000 150000 0  200000 150000 0  250000 150000 0  300000 150000 0  350000 150000 0  400000 150000 0  450000 150000 0  500000 150000 0  550000 150000 0  600000 150000 0  650000 150000 0  700000 150000 0  750000 150000 0  800000 150000 0  850000 150000 0  900000 150000 0  950000 150000 0  1000000 150000 0  0 200000 0  50000 200000 0  100000 200000 0  150000 200000 0  200000 200000 0  250000 200000 0  300000 200000 0  350000 200000 0  400000 200000 0  450000 200000 0  500000 200000 0  550000 200000 0  600000 200000 0  650000 200000 0  700000 200000 0  750000 200000 0  800000 200000 0  850000 200000 0  900000 200000 0  950000 200000 0  1000000 200000 0  0 250000 0  50000 250000 0  100000 250000 0  150000 250000 0  200000 250000 0  250000 250000 0  300000 250000 0  350000 250000 0  400000 250000 0  450000 250000 0  500000 250000 0  550000 250000 0  600000 250000 0  650000 250000 0  700000 250000 0  750000 250000 0  800000 250000 0  850000 250000 0  900000 250000 0  950000 250000 0  1000000 250000 0  0 300000 0  50000 300000 0  100000 300000 0  150000 300000 0  200000 300000 0  250000 300000 0  300000 300000 0  350000 300000 0  400000 300000 0  450000 300000 0  500000 300000 0  550000 300000 0  600000 300000 0  650000 300000 0  700000 300000 0  750000 300000 0  800000 300000 0  850000 300000 0  900000 300000 0  950000 300000 0  1000000 300000 0  0 350000 0  50000 350000 0  100000 350000 0  150000 350000 0  200000 350000 0  250000 350000 0  300000 350000 0  350000 350000 0  400000 350000 0  450000 350000 0  500000 350000 0  550000 350000 0  600000 350000 0  650000 350000 0  700000 350000 0  750000 350000 0  800000 350000 0  850000 350000 0  900000 350000 0  950000 350000 0  1000000 350000 0  0 400000 0  50000 400000 0  100000 400000 0  150000 400000 0  200000 400000 0  250000 400000 0  300000 400000 0  350000 400000 0  400000 400000 0  450000 400000 0  500000 400000 0  550000 400000 0  600000 400000 0  650000 400000 0  700000 400000 0  750000 400000 0  800000 400000 0  850000 400000 0  900000 400000 0  950000 400000 0  1000000 400000 0  0 450000 0  50000 450000 0  100000 450000 0  150000 450000 0  200000 450000 0  250000 450000 0  300000 450000 0  350000 450000 0  400000 450000 0  450000 450000 0  500000 450000 0  550000 450000 0  600000 450000 0  650000 450000 0  700000 450000 0  750000 450000 0  800000 450000 0  850000 450000 0  900000 450000 0  950000 450000 0  1000000 450000 0  0 500000 0  50000 500000 0  100000 500000 0  150000 500000 0  200000 500000 0  250000 500000 0  300000 500000 0  350000 500000 0  400000 500000 0  450000 500000 0  500000 500000 0  550000 500000 0  600000 500000 0  650000 500000 0  700000 500000 0  750000 500000 0  800000 500000 0  850000 500000 0  900000 500000 0  950000 500000 0  1000000 500000 0  0 550000 0  50000 550000 0  100000 550000 0  150000 550000 0  200000 550000 0  250000 550000 0  300000 550000 0  350000 550000 0  400000 550000 0  450000 550000 0  500000 550000 0  550000 550000 0  600000 550000 0  650000 550000 0  700000 550000 0  750000 550000 0  800000 550000 0  850000 550000 0  900000 550000 0  950000 550000 0  1000000 550000 0  0 600000 0  50000 600000 0  100000 600000 0  150000 600000 0  200000 600000 0  250000 600000 0  300000 600000 0  350000 600000 0  400000 600000 0  450000 600000 0  500000 600000 0  550000 600000 0  600000 600000 0  650000 600000 0  700000 600000 0  750000 600000 0  800000 600000 0  850000 600000 0  900000 600000 0  950000 600000 0  1000000 600000 0  0 650000 0  50000 650000 0  100000 650000 0  150000 650000 0  200000 650000 0  250000 650000 0  300000 650000 0  350000 650000 0  400000 650000 0  450000 650000 0  500000 650000 0  550000 650000 0  600000 650000 0  650000 650000 0  700000 650000 0  750000 650000 0  800000 650000 0  850000 650000 0  900000 650000 0  950000 650000 0  1000000 650000 0  0 700000 0  50000 700000 0  100000 700000 0  150000 700000 0  200000 700000 0  250000 700000 0  300000 700000 0  350000 700000 0  400000 700000 0  450000 700000 0  500000 700000 0  550000 700000 0  600000 700000 0  650000 700000 0  700000 700000 0  750000 700000 0  800000 700000 0  850000 700000 0  900000 700000 0  950000 700000 0  1000000 700000 0  0 750000 0  50000 750000 0  100000 750000 0  150000 750000 0  200000 750000 0  250000 750000 0  300000 750000 0  350000 750000 0  400000 750000 0  450000 750000 0  500000 750000 0  550000 750000 0  600000 750000 0  650000 750000 0  700000 750000 0  750000 750000 0  800000 750000 0  850000 750000 0  900000 750000 0  950000 750000 0  1000000 750000 0  0 800000 0  50000 800000 0  100000 800000 0  150000 800000 0  200000 800000 0  250000 800000 0  300000 800000 0  350000 800000 0  400000 800000 0  450000 800000 0  500000 800000 0  550000 800000 0  600000 800000 0  650000 800000 0  700000 800000 0  750000 800000 0  800000 800000 0  850000 800000 0  900000 800000 0  950000 800000 0  1000000 800000 0  0 850000 0  50000 850000 0  100000 850000 0  150000 850000 0  200000 850000 0  250000 850000 0  300000 850000 0  350000 850000 0  400000 850000 0  450000 850000 0  500000 850000 0  550000 850000 0  600000 850000 0  650000 850000 0  700000 850000 0  750000 850000 0  800000 850000 0  850000 850000 0  900000 850000 0  950000 850000 0  1000000 850000 0  0 900000 0  50000 900000 0  100000 900000 0  150000 900000 0  200000 900000 0  250000 900000 0  300000 900000 0  350000 900000 0  400000 900000 0  450000 900000 0  500000 900000 0  550000 900000 0  600000 900000 0  650000 900000 0  700000 900000 0  750000 900000 0  800000 900000 0  850000 900000 0  900000 900000 0  950000 900000 0  1000000 900000 0  0 950000 0  50000 950000 0  100000 950000 0  150000 950000 0  200000 950000 0  250000 950000 0  300000 950000 0  350000 950000 0  400000 950000 0  450000 950000 0  500000 950000 0  550000 950000 0  600000 950000 0  650000 950000 0  700000 950000 0  750000 950000 0  800000 950000 0  850000 950000 0  900000 950000 0  950000 950000 0  1000000 950000 0  0 1000000 0  50000 1000000 0  100000 1000000 0  150000 1000000 0  200000 1000000 0  250000 1000000 0  300000 1000000 0  350000 1000000 0  400000 1000000 0  450000 1000000 0  500000 1000000 0  550000 1000000 0  600000 1000000 0  650000 1000000 0  700000 1000000 0  750000 1000000 0  800000 1000000 0  850000 1000000 0  900000 1000000 0  950000 1000000 0  1000000 1000000 0  0 1050000 0  50000 1050000 0  100000 1050000 0  150000 1050000 0  200000 1050000 0  250000 1050000 0  300000 1050000 0  350000 1050000 0  400000 1050000 0  450000 1050000 0  500000 1050000 0  550000 1050000 0  600000 1050000 0  650000 1050000 0  700000 1050000 0  750000 1050000 0  800000 1050000 0  850000 1050000 0  900000 1050000 0  950000 1050000 0  1000000 1050000 0  0 1100000 0  50000 1100000 0  100000 1100000 0  150000 1100000 0  200000 1100000 0  250000 1100000 0  300000 1100000 0  350000 1100000 0  400000 1100000 0  450000 1100000 0  500000 1100000 0  550000 1100000 0  600000 1100000 0  650000 1100000 0  700000 1100000 0  750000 1100000 0  800000 1100000 0  850000 1100000 0  900000 1100000 0  950000 1100000 0  1000000 1100000 0  0 1150000 0  50000 1150000 0  100000 1150000 0  150000 1150000 0  200000 1150000 0  250000 1150000 0  300000 1150000 0  350000 1150000 0  400000 1150000 0  450000 1150000 0  500000 1150000 0  550000 1150000 0  600000 1150000 0  650000 1150000 0  700000 1150000 0  750000 1150000 0  800000 1150000 0  850000 1150000 0  900000 1150000 0  950000 1150000 0  1000000 1150000 0  0 1200000 0  50000 1200000 0  100000 1200000 0  150000 1200000 0  200000 1200000 0  250000 1200000 0  300000 1200000 0  350000 1200000 0  400000 1200000 0  450000 1200000 0  500000 1200000 0  550000 1200000 0  600000 1200000 0  650000 1200000 0  700000 1200000 0  750000 1200000 0  800000 1200000 0  850000 1200000 0  900000 1200000 0  950000 1200000 0  1000000 1200000 0  0 1250000 0  50000 1250000 0  100000 1250000 0  150000 1250000 0  200000 1250000 0  250000 1250000 0  300000 1250000 0  350000 1250000 0  400000 1250000 0  450000 1250000 0  500000 1250000 0  550000 1250000 0  600000 1250000 0  650000 1250000 0  700000 1250000 0  750000 1250000 0  800000 1250000 0  850000 1250000 0  900000 1250000 0  950000 1250000 0  1000000 1250000 0  0 1300000 0  50000 1300000 0  100000 1300000 0  150000 1300000 0  200000 1300000 0  250000 1300000 0  300000 1300000 0  350000 1300000 0  400000 1300000 0  450000 1300000 0  500000 1300000 0  550000 1300000 0  600000 1300000 0  650000 1300000 0  700000 1300000 0  750000 1300000 0  800000 1300000 0  850000 1300000 0  900000 1300000 0  950000 1300000 0  1000000 1300000 0  0 1350000 0  50000 1350000 0  100000 1350000 0  150000 1350000 0  200000 1350000 0  250000 1350000 0  300000 1350000 0  350000 1350000 0  400000 1350000 0  450000 1350000 0  500000 1350000 0  550000 1350000 0  600000 1350000 0  650000 1350000 0  700000 135
[...]
<PointData  Vectors="f_15"> 
<DataArray  type="Float64"  Name="f_15"  NumberOfComponents="3" format="ascii">-3.2643495422030584e-10 2.9432402837026770e-10 0.0000000000000000e+00  -6.0014016676777965e-10 2.4211463067944311e-10 0.0000000000000000e+00  -1.0861400048194722e-09 2.2090375743997731e-10 0.0000000000000000e+00  -1.5555420606964113e-09 2.0219260934772148e-10 0.0000000000000000e+00  -1.9852787127763571e-09 1.8009961230418875e-10 0.0000000000000000e+00  -2.3628411741195312e-09 1.5408231375450009e-10 0.0000000000000000e+00  -2.6780622517888873e-09 1.2444946609093670e-10 0.0000000000000000e+00  -2.9227171150736779e-09 9.1798648132043090e-11 0.0000000000000000e+00  -3.0905163511226448e-09 5.6889432533235143e-11 0.0000000000000000e+00  -3.1772184504410434e-09 2.0576558681954889e-11 0.0000000000000000e+00  -3.1807216564283504e-09 -1.6233794624443786e-11 0.0000000000000000e+00  -3.1011082316034098e-09 -5.2617928098832206e-11 0.0000000000000000e+00  -2.9406363314425115e-09 -8.7664796226439116e-11 0.0000000000000000e+00  -2.7036796222053854e-09 -1.2050557878933149e-10 0.0000000000000000e+00  -2.3966254565156004e-09 -1.5034678569517854e-10 0.0000000000000000e+00  -2.0277978197701618e-09 -1.7652086784658732e-10 0.0000000000000000e+00  -1.6077524325242571e-09 -1.9860632073753636e-10 0.0000000000000000e+00  -1.1515355846392144e-09 -2.1676236698763927e-10 0.0000000000000000e+00  -6.8936116497177205e-10 -2.3140317705658124e-10 0.0000000000000000e+00  -3.1196876684152401e-10 -2.2455671827638299e-10 0.0000000000000000e+00  -1.5308524505228412e-10 -1.4176935946219719e-10 0.0000000000000000e+00  -2.7756913486660454e-10 5.4643489167444942e-10 0.0000000000000000e+00  -4.9752327634017028e-10 4.8958297742635834e-10 0.0000000000000000e+00  -8.8174273602094931e-10 5.0157940817661827e-10 0.0000000000000000e+00  -1.3074987003371773e-09 4.7696952718980135e-10 0.0000000000000000e+00  -1.7129691166165397e-09 4.3399445244124324e-10 0.0000000000000000e+00  -2.0776702825083759e-09 3.7764134463141447e-10 0.0000000000000000e+00  -2.3898724372356305e-09 3.1063462974098999e-10 0.0000000000000000e+00  -2.6406212207557147e-09 2.3521521241089147e-10 0.0000000000000000e+00  -2.8230487699869465e-09 1.5357569991480745e-10 0.0000000000000000e+00  -2.9323081850733728e-09 6.7964546802643764e-11 0.0000000000000000e+00  -2.9655950992650122e-09 -1.9313730987023411e-11 0.0000000000000000e+00  -2.9221741466448240e-09 -1.0593188532454880e-10 0.0000000000000000e+00  -2.8033824354334365e-09 -1.8958324241630390e-10 0.0000000000000000e+00  -2.6126031598630254e-09 -2.6802483107575276e-10 0.0000000000000000e+00  -2.3552196089488021e-09 -3.3911138062797947e-10 0.0000000000000000e+00  -2.0385969305583698e-09 -4.0080347082361267e-10 0.0000000000000000e+00  -1.6722737799900564e-09 -4.5109356612384336e-10 0.0000000000000000e+00  -1.2691219918953909e-09 -4.8754378391995406e-10 0.0000000000000000e+00  -8.5071001402864007e-10 -5.0450337419189490e-10 0.0000000000000000e+00  -4.7056955910917432e-10 -4.8042145476669200e-10 0.0000000000000000e+00  -2.4369370997330843e-10 -2.8891291491798369e-10 0.0000000000000000e+00  -2.7130382028854711e-10 9.9418360250594148e-10 0.0000000000000000e+00  -5.0780502684740429e-10 8.6931880255337088e-10 0.0000000000000000e+00  -8.7441612189160784e-10 8.7473750190504270e-10 0.0000000000000000e+00  -1.2657534704462799e-09 8.3604154254384226e-10 0.0000000000000000e+00  -1.6400802322277144e-09 7.6476719403459001e-10 0.0000000000000000e+00  -1.9788204231427199e-09 6.6851370258975406e-10 0.0000000000000000e+00  -2.2697268676860690e-09 5.5251066352639341e-10 0.0000000000000000e+00  -2.5038385434320233e-09 4.2105383132606897e-10 0.0000000000000000e+00  -2.6744303095112733e-09 2.7820984417159552e-10 0.0000000000000000e+00  -2.7767951320837000e-09 1.2805793361418487e-10 0.0000000000000000e+00  -2.8082191277188378e-09 -2.5264443917624729e-11 0.0000000000000000e+00  -2.7679848563560026e-09 -1.7759273853007995e-10 0.0000000000000000e+00  -2.6573662126252572e-09 -3.2479258236024375e-10 0.0000000000000000e+00  -2.4796064568221485e-09 -4.6281719263315324e-10 0.0000000000000000e+00  -2.2398876416601879e-09 -5.8774071182308429e-10 0.0000000000000000e+00  -1.9453315150706774e-09 -6.9572426259391878e-10 0.0000000000000000e+00  -1.6051749414352750e-09 -7.8280646793200080e-10 0.0000000000000000e+00  -1.2316523377947438e-09 -8.4422077440967795e-10 0.0000000000000000e+00  -8.4359159992688248e-10 -8.7243604616627110e-10 0.0000000000000000e+00  -4.8411703975799500e-10 -8.5376082327568877e-10 0.0000000000000000e+00  -2.5870195862664158e-10 -6.3393276188206098e-10 0.0000000000000000e+00  -2.7976596709865448e-10 1.4352171887306269e-09 0.0000000000000000e+00  -5.0611936700992406e-10 1.2864601390294730e-09 0.0000000000000000e+00  -8.6677775776123105e-10 1.2687617979910372e-09 0.0000000000000000e+00  -1.2452179906791427e-09 1.2086779610776381e-09 0.0000000000000000e+00  -1.6029184980218400e-09 1.1067177654880907e-09 0.0000000000000000e+00  -1.9250909080782520e-09 9.6948673114735435e-10 0.0000000000000000e+00  -2.2013963399495239e-09 8.0345612630204395e-10 0.0000000000000000e+00  -2.4235720028477028e-09 6.1467119234868902e-10 0.0000000000000000e+00  -2.5852359676545270e-09 4.0905522424450706e-10 0.0000000000000000e+00  -2.6818902810421269e-09 1.9257649831448872e-10 0.0000000000000000e+00  -2.7109422227593142e-09 -2.8719783617054768e-11 0.0000000000000000e+00  -2.6717181794278215e-09 -2.4875520224566301e-10 0.0000000000000000e+00  -2.5654584737221212e-09 -4.6149360629946508e-10 0.0000000000000000e+00  -2.3952896028117856e-09 -6.6101910285321382e-10 0.0000000000000000e+00  -2.1661759028617401e-09 -8.4159026084633409e-10 0.0000000000000000e+00  -1.8848667962804998e-09 -9.9763636499651232e-10 0.0000000000000000e+00  -1.5599177054029202e-09 -1.1236490071596804e-09 0.0000000000000000e+00  -1.2021705535430352e-09 -1.2139486495859288e-09 0.0000000000000000e+00  -8.2764284585527860e-10 -1.2623691616692100e-09 0.0000000000000000e+00  -4.7635673989912817e-10 -1.2615980792260336e-09 0.0000000000000000e+00  -2.6192595625496262e-10 -1.0537102635411972e-09 0.0000000000000000e+00  -2.9620103022499034e-10 1.8670541222028091e-09 0.0000000000000000e+00  -5.0689940072960576e-10 1.7050313952104401e-09 0.0000000000000000e+00  -8.6355402156082954e-10 1.6643290580131921e-09 0.0000000000000000e+00  -1.2377799675582395e-09 1.5783497083061128e-09 0.0000000000000000e+00  -1.5890086820776998e-09 1.4436305644495362e-09 0.0000000000000000e+00  -1.9034111775454131e-09 1.2651544415506243e-09 0.0000000000000000e+00  -2.1719435647594157e-09 1.0497596883191634e-09 0.0000000000000000e+00  -2.3872403368346681e-09 8.0475036385938733e-10 0.0000000000000000e+00  -2.5434326848394480e-09 5.3767200512887381e-10 0.0000000000000000e+00  -2.6363109868655985e-09 2.5626768271826877e-10 0.0000000000000000e+00  -2.6634390827439509e-09 -3.1577264030228591e-11 0.0000000000000000e+00  -2.6242046466620999e-09 -3.1792440438005962e-10 0.0000000000000000e+00  -2.5198237240831865e-09 -5.9489250059673468e-10 0.0000000000000000e+00  -2.3533064144229297e-09 -8.5477251371417893e-10 0.0000000000000000e+00  -2.1293834717950745e-09 -1.0901332091961017e-09 0.0000000000000000e+00  -1.8543995892973073e-09 -1.2939100909415145e-09 0.0000000000000000e+00  -1.5362480102464868e-09 -1.4594970889826876e-09 0.0000000000000000e+00  -1.1848209724432188e-09 -1.5809399987627788e-09 0.0000000000000000e+00  -8.1543457697546008e-10 -1.6532316704989716e-09 0.0000000000000000e+00  -4.7015547709839153e-10 -1.6711680999422853e-09 0.0000000000000000e+00  -2.7262040250771270e-10 -1.4776026060789368e-09 0.0000000000000000e+00  -3.1918977727280084e-10 2.2950124524637499e-09 0.0000000000000000e+00  -5.1312532783370905e-10 2.1224902995957277e-09 0.0000000000000000e+00  -8.6772723004146483e-10 2.0609636264957620e-09 0.0000000000000000e+00  -1.2423733156707487e-09 1.9474016757226757e-09 0.0000000000000000e+00  -1.5932866777809657e-09 1.7781148836100294e-09 0.0000000000000000e+00  -1.9061190782794905e-09 1.5574788230504967e-09 0.0000000000000000e+00  -2.1722456077667777e-09 1.2926064561140388e-09 0.0000000000000000e+00  -2.3848620670858480e-09 9.9179276180492033e-10 0.0000000000000000e+00  -2.5385402373025657e-09 6.6399629231207714e-10 0.0000000000000000e+00  -2.6293633043667232e-09 3.1859415192918098e-10 0.0000000000000000e+00  -2.6550673735198050e-09 -3.4788171145547160e-11 0.0000000000000000e+00  -2.6151159765331345e-09 -3.8643502282077740e-10 0.0000000000000000e+00  -2.5107153534027844e-09 -7.2670206916383993e-10 0.0000000000000000e+00  -2.3447795527285306e-09 -1.0461825955729480e-09 0.0000000000000000e+00  -2.1218476666871084e-09 -1.3358801965529591e-09 0.0000000000000000e+00  -1.8479669894731889e-09 -1.5873998474676379e-09 0.0000000000000000e+00  -1.5306552457570177e-09 -1.7931956478563441e-09 0.0000000000000000e+00  -1.1795550440085227e-09 -1.9469469192571100e-09 0.0000000000000000e+00  -8.1061254829958182e-10 -2.0438417206914585e-09 0.0000000000000000e+00  -4.6935102878550186e-10 -2.0787186746972147e-09 0.0000000000000000e+00  -2.8985402536748318e-10 -1.8951978222393814e-09 0.0000000000000000e+00  -3.4823779949449628e-10 2.7239197162883267e-09 0.0000000000000000e+00  -5.2478016594101869e-10 2.5417630998357876e-09 0.0000000000000000e+00  -8.7936491792996175e-10 2.4609206633638287e-09 0.0000000000000000e+00  -1.2575106431437887e-09 2.3194272514453654e-09 0.0000000000000000e+00  -1.6118979841221680e-09 2.1143127365706069e-09 0.0000000000000000e+00  -1.9271596212947190e-09 1.8503263084074257e-09 0.0000000000000000e+00  -2.1945610431450561e-09 1.5351661875116095e-09 0.0000000000000000e+00  -2.4075114286170835e-09 1.1781168355576032e-09 0.0000000000000000e+00  -2.5608578650842249e-09 7.8945902543757677e-10 0.0000000000000000e+00  -2.6509154910059184e-09 3.8010539796776672e-10 0.0000000000000000e+00  -2.6755790456379599e-09 -3.8666994597453929e-11 0.0000000000000000e+00  -2.6343936914019451e-09 -4.5544546496800396e-10 0.0000000000000000e+00  -2.5285737216481443e-09 -8.5889897017700855e-10 0.0000000000000000e+00  -2.3609735468588911e-09 -1.2379986631675114e-09 0.0000000000000000e+00  -2.1360160529652066e-09 -1.5822545016284231e-09 0.0000000000000000e+00  -1.8596051152254884e-09 -1.8819860321036927e-09 0.0000000000000000e+00  -1.5391737695063707e-09 -2.1286551020199805e-09 0.0000000000000000e+00  -1.1845811905655142e-09 -2.3152770067703234e-09 0.0000000000000000e+00  -8.1294448576166182e-10 -2.4365677264459077e-09 0.0000000000000000e+00  -4.7369184503503027e-10 -2.4866992085815653e-09 0.0000000000000000e+00  -3.1274723194685999e-10 -2.3089232980311080e-09 0.0000000000000000e+00  -3.8315849142834709e-10 3.1574023174152557e-09 0.0000000000000000e+00  -5.4093563570420149e-10 2.9659350632138342e-09 0.0000000000000000e+00  -8.9690515740737029e-10 2.8666499552241144e-09 0.0000000000000000e+00  -1.2805225172909439e-09 2.6971022669245124e-09 0.0000000000000000e+00  -1.6405827538495432e-09 2.4552209551439136e-09 0.0000000000000000e+00  -1.9605576408849649e-09 2.1466460240335972e-09 0.0000000000000000e+00  -2.2313816294817418e-09 1.7800077371348147e-09 0.0000000000000000e+00  -2.4464711099820906e-09 1.3657172523265731e-09 0.0000000000000000e+00  -2.6008147317028369e-09 9.1539180266617210e-10 0.0000000000000000e+00  -2.6908942562827954e-09 4.4143924207463831e-10 0.0000000000000000e+00  -2.7147401345182256e-09 -4.3272421528630345e-11 0.0000000000000000e+00  -2.6719783454897514e-09 -5.2569867523418946e-10 0.0000000000000000e+00  -2.5638447648377793e-09 -9.9288251102216838e-10 0.0000000000000000e+00  -2.3931664924907424e-09 -1.4322202415647824e-09 0.0000000000000000e+00  -2.1643161319441587e-09 -1.8317478448912051e-09 0.0000000000000000e+00  -1.8831741094092406e-09 -2.1804651819206791e-09 0.0000000000000000e+00  -1.5572747191243663e-09 -2.4687106545333253e-09 0.0000000000000000e+00  -1.1969201519002494e-09 -2.6885676245641486e-09 0.0000000000000000e+00  -8.2060269497433326e-10 -2.8339241455934577e-09 0.0000000000000000e+00  -4.8203292620350306e-10 -2.8980798715441030e-09 0.0000000000000000e+00  -3.4096293336664753e-10 -2.7228236828010157e-09 0.0000000000000000e+00  -4.2392816646064478e-10 3.5975606410762886e-09 0.0000000000000000e+00  -5.6026982990080640e-10 3.3971417488099256e-09 0.0000000000000000e+00  -9.1789949839158695e-10 3.2797998347391908e-09 0.0000000000000000e+00  -1.3077376808707967e-09 3.0819447340315910e-09 0.0000000000000000e+00  -1.6742598884717959e-09 2.8024181613626287e-09 0.0000000000000000e+00  -1.9997337458142631e-09 2.4480080690748237e-09 0.0000000000000000e+00  -2.2747152355534812e-09 2.0285424273626012e-09 0.0000000000000000e+00  -2.4925607049242634e-09 1.5557252817799188e-09 0.0000000000000000e+00  -2.6483473052996178e-09 1.0425780030274082e-09 0.0000000000000000e+00  -2.7386963418239815e-09 5.0300333001607291e-10 0.0000000000000000e+00  -2.7617656288166733e-09 -4.8578493950360870e-11 0.0000000000000000e+00  -2.7172616367092775e-09 -5.9754510010002150e-10 0.0000000000000000e+00  -2.6064445882772850e-09 -1.1293636701530230e-09 0.0000000000000000e+00  -2.4321235189327729e-09 -1.6298843103220377e-09 0.0000000000000000e+00  -2.1986460459897300e-09 -2.0856579434905458e-09 0.0000000000000000e+00  -1.9119197061385326e-09 -2.4842950843599857e-09 0.0000000000000000e+00  -1.5796538807103928e-09 -2.8148686509099957e-09 0.0000000000000000e+00  -1.2126722275265595e-09 -3.0683275338702783e-09 0.0000000000000000e+00  -8.3093999503487808e-10 -3.2375418532343607e-09 0.0000000000000000e+00  -4.9289740582338535e-10 -3.3148898450204483e-09 0.0000000000000000e+00  -3.7438888502369245e-10 -3.1399854432124341e-09 0.0000000000000000e+00  -4.7062085003106088e-10 4.0447591034883200e-09 0.0000000000000000e+00  -5.8117997104919953e-10 3.8361167431640483e-09 0.0000000000000000e+00  -9.3924520152394975e-10 3.7007502237062301e-09 0.0000000000000000e+00  -1.3345704422437175e-09 3.4741314291926124e-09 0.0000000000000000e+00  -1.7068278899656955e-09 3.1560311887790157e-09 0.0000000000000000e+00  -2.0370653652649946e-09 2.7545482414361859e-09 0.0000000000000000e+00  -2.3155107142894870e-09 2.2809078589028162e-09 0.0000000000000000e+00  -2.5355036220614612e-09 1.7482609427877512e-09 0.0000000000000000e+00  -2.6922462832283751e-09 1.1711124238220130e-09 0.0000000000000000e+00  -2.7825318180946641e-09 5.6487065674844046e-10 0.0000000000000000e+00  -2.8046683018255105e-09 -5.4529074132161987e-11 0.0000000000000000e+00  -2.7584491661499717e-09 -6.7094622825197525e-10 0.0000000000000000e+00  -2.6451463949325156e-09 -1.2683284414516651e-09 0.0000000000000000e+00  -2.4675235628018095e-09 -1.8310083377150208e-09 0.0000000000000000e+00  -2.2298704461578015e-09 -2.3440329797173874e-09 0.0000000000000000e+00  -1.9380926669192233e-09 -2.7935450972751457e-09 0.0000000000000000e+00  -1.6000532613711070e-09 -3.1672168232105018e-09 0.0000000000000000e+00  -1.2270878829009607e-09 -3.4546991260194825e-09 0.0000000000000000e+00  -8.4070006137967601e-10 -3.6477162911024888e-09 0.0000000000000000e+00  -5.0455839837242719e-10 -3.7377122187456061e-09 0.0000000000000000e+00  -4.1302227466477569e-10 -3.5619365421530420e-09 0.0000000000000000e+00  -5.2337338014106354e-10 4.4973755648162228e-09 0.0000000000000000e+00  -6.0176990055959684e-10 4.2818585657517236e-09 0.0000000000000000e+00  -9.5718883481032558e-10 4.1282515657365923e-09 0.0000000000000000e+00  -1.3554547098727676e-09 3.8722337954989893e-09 0.0000000000000000e+00  -1.7309436705475543e-09 3.5145814331346485e-09 0.0000000000000000e+00  -2.0634911544626252e-09 3.0648578059838653e-09 0.0000000000000000e+00  -2.3431201308281695e-09 2.5358608252786972e-09 0.0000000000000000e+00  -2.5632930137533710e-09 1.9423265385520767e-09 0.0000000000000000e+00  -2.7194654106172686e-09 1.3003116466224672e-09 0.0000000000000000e+00  -2.8087053252009206e-09 6.2672429120100459e-10 0.0000000000000000e+00  -2.8295360388077352e-09 -6.1048316303339534e-11 0.0000000000000000e+00  -2.7818553886396155e-09 -7.4543934661941744e-10 0.0000000000000000e+00  -2.6669149959411391e-09 -1.4089646037460974e-09 0.0000000000000000e+00  -2.4873581509656170e-09 -2.0344916399985677e-09 0.0000000000000000e+00  -2.2473134482875385e-09 -2.6055573289197118e-09 0.0000000000000000e+00  -1.9525701779693526e-09 -3.1067617764626273e-09 0.0000000000000000e+00  -1.6110371419741041e-09 -3.5242427742657650e-09 0.0000000000000000e+00  -1.2344866169265899e-09 -3.8461947373917179e-09 0.0000000000000000e+00  -8.4600563766993010e-10 -4.0630702445559453e-09 0.0000000000000000e+00  -5.1501004444146951e-10 -4.1653595537362524e-09 0.0000000000000000e+00  -4.5692611330771591e-10 -3.9883930396430819e-09 0.0000000000000000e+00  -5.8236541111512348e-10 4.9514693353178881e-09 0.0000000000000000e+00  -6.1978725266914913e-10 4.7312799479496982e-09 0.0000000000000000e+00  -9.6722120649972703e-10 4.5590473266113704e-09 0.0000000000000000e+00  -1.3636648823092431e-09 4.2728703185713318e-09 0.0000000000000000e+00  -1.7377256850352088e-09 3.8746952405875188e-09 0.0000000000000000e+00  -2.0680728389533346e-09 3.3757438141286309e-09 0.0000000000000000e+00  -2.3447255804053009e-09 2.7905741556270238e-09 0.0000000000000000e+00  -2.5615092216909921e-09 2.1356397814440474e-09 0.0000000000000000e+00  -2.7143626367928482e-09 1.4285939294856970e-09 0.0000000000000000e+00  -2.8008147631222872e-09 6.8779667551744967e-10 0.0000000000000000e+00  -2.8197206569231444e-09 -6.8033966009795859e-11 0.0000000000000000e+00  -2.7711138135463964e-09 -8.2006323391926495e-10 0.0000000000000000e+00  -2.6561684662979155e-09 -1.5495271523275790e-09 0.0000000000000000e+00  -2.4772732490570868e-09 -2.2379322609983781e-09 0.0000000000000000e+00  -2.2382068388624210e-09 -2.8673304359710098e-09 0.0000000000000000e+00  -1.9444300004412695e-09 -3.4207133450373267e-09 0.0000000000000000e+00  -1.6036968570657160e-09 -3.8825398292573274e-09 0.0000000000000000e+00  -1.2280730113427441e-09 -4.2393623439741783e-09 0.0000000000000000e+00  -8.4224655593418265e-10 -4.4801986794049811e-09 0.0000000000000000e+00  -5.2189757080174187e-10 -4.5945396233011952e-09 0.0000000000000000e+00  -5.0620727772850003e-10 -4.4169982215310210e-09 0.0000000000000000e+00  -6.4780948032398475e-10 5.4003500672900860e-09 0.0000000000000000e+00  -6.3253510521790779e-10 5.1787889290380779e-09 0.0000000000000000e+00  -9.6391028780317464e-10 4.9874309455667490e-09 0.0000000000000000e+00  -1.3510534641764501e-09 4.6702642638968126e-09 0.0000000000000000e+00  -1.7163715916345469e-09 4.2306876247200954e-09 0.0000000000000000e+00  -2.0374754768226740e-09 3.6818536817044221e-09 0.0000000000000000e+00  -2.3046824167315079e-09 3.0403124810919393e-09 0.0000000000000000e+00  -2.5125439819368339e-09 2.3243736774339585e-09 0.0000000000000000e+00  -2.6578354081759373e-09 1.5532988401820141e-09 0.0000000000000000e+00  -2.7388341933229545e-09 7.4678305848902057e-10 0.0000000000000000e+00  -2.7549073165986428e-09 -7.5342207627986651e-11 0.0000000000000000e+00  -2.7062715891470968e-09 -8.9324208179837230e-10 0.0000000000000000e+00  -2.5939342704801851e-09 -1.6871308115851469e-09 0.0000000000000000e+00  -2.4198187796199208e-09 -2.4373439172365909e-09 0.0000000000000000e+00  -2.1870574024626396e-09 -3.1245262730833624e-09 0.0000000000000000e+00  -1.9004487997461590e-09 -3.7300079368658205e-09 0.0000000000000000e+00  -1.5672784484626740e-09 -4.2363972053656699e-09 0.0000000000000000e+00  -1.1996771582469660e-09 -4.6283606906837371e-09 0.0000000000000000e+00  -8.2391015911630423e-10 -4.8932458245682991e-09 0.0000000000000000e+00  -5.2242398263315193e-10 -5.0194530475623606e-09 0.0000000000000000e+00  -5.6100316474517229e-10 -4.8429812612382195e-09 0.0000000000000000e+00  -7.1995143345725053e-10 5.8340321024421596e-09 0.0000000000000000e+00  -6.3676681470266863e-10 5.6157739373832676e-09 0.0000000000000000e+00  -9.4068938969763049e-10 5.4047055478509375e-09 0.0000000000000000e+00  -1.3077176496914145e-09 5.0556872307966500e-09 0.0000000000000000e+00  -1.6536846707649873e-09 4.5740114178857629e-09 0.0000000000000000e+00  -1.95534097