<?xml version="1.0"?>
<VTKFile type="UnstructuredGrid"  version="0.1"  >
<UnstructuredGrid>
<Piece  NumberOfPoints="651" NumberOfCells="1200">
<Points>
<DataArray  type="Float64"  NumberOfComponents="3"  format="ascii">0 0 0  50000 0 0  100000 0 0  150000 0 0  200000 0 0  250000 0 0  300000 0 0  350000 0 0  400000 0 0  450000 0 0  500000 0 0  550000 0 0  600000 0 0  650000 0 0  700000 0 0  750000 0 0  800000 0 0  850000 0 0  900000 0 0  950000 0 0  1000000 0 0  0 50000 0  50000 50000 0  100000 50000 0  150000 50000 0  200000 50000 0  250000 50000 0  300000 50000 0  350000 50000 0  400000 50000 0  450000 50000 0  500000 50000 0  550000 50000 0  600000 50000 0  650000 50000 0  700000 50000 0  750000 50000 0  800000 50000 0  850000 50000 0  900000 50000 0  950000 50000 0  1000000 50000 0  0 100000 0  50000 100000 0  100000 100000 0  150000 100000 0  200000 100000 0  250000 100000 0  300000 100000 0  350000 100000 0  400000 100000 0  450000 100000 0  500000 100000 0  550000 100000 0  600000 100000 0  650000 100000 0  700000 100000 0  750000 100000 0  800000 100000 0  850000 100000 0  900000 100000 0  950000 100000 0  1000000 100000 0  0 150000 0  50000 150000 0  100000 150000 0  150000 150000 0  200000 150000 0  250000 150000 0  300000 150000 0  350000 150000 0  400000 150000 0  450000 150000 0  500000 150000 0  550000 150000 0  600000 150000 0  650000 150000 0  700000 150000 0  750000 150000 0  800000 150000 0  850000 150000 0  900000 150000 0  950000 150000 0  1000000 150000 0  0 200000 0  50000 200000 0  100000 200000 0  150000 200000 0  200000 200000 0  250000 200000 0  300000 200000 0  350000 200000 0  400000 200000 0  450000 200000 0  500000 200000 0  550000 200000 0  600000 200000 0  650000 200000 0  700000 200000 0  750000 200000 0  800000 200000 0  850000 200000 0  900000 200000 0  950000 200000 0  1000000 200000 0  0 250000 0  50000 250000 0  100000 250000 0  150000 250000 0  200000 250000 0  250000 250000 0  300000 250000 0  350000 250000 0  400000 250000 0  450000 250000 0  500000 250000 0  550000 250000 0  600000 250000 0  650000 250000 0  700000 250000 0  750000 250000 0  800000 250000 0  850000 250000 0  900000 250000 0  950000 250000 0  1000000 250000 0  0 300000 0  50000 300000 0  100000 300000 0  150000 300000 0  200000 300000 0  250000 300000 0  300000 300000 0  350000 300000 0  400000 300000 0  450000 300000 0  500000 300000 0  550000 300000 0  600000 300000 0  650000 300000 0  700000 300000 0  750000 300000 0  800000 300000 0  850000 300000 0  900000 300000 0  950000 300000 0  1000000 300000 0  0 350000 0  50000 350000 0  100000 350000 0  150000 350000 0  200000 350000 0  250000 350000 0  300000 350000 0  350000 350000 0  400000 350000 0  450000 350000 0  500000 350000 0  550000 350000 0  600000 350000 0  650000 350000 0  700000 350000 0  750000 350000 0  800000 350000 0  850000 350000 0  900000 350000 0  950000 350000 0  1000000 350000 0  0 400000 0  50000 400000 0  100000 400000 0  150000 400000 0  200000 400000 0  250000 400000 0  300000 400000 0  350000 400000 0  400000 400000 0  450000 400000 0  500000 400000 0  550000 400000 0  600000 400000 0  650000 400000 0  700000 400000 0  750000 400000 0  800000 400000 0  850000 400000 0  900000 400000 0  950000 400000 0  1000000 400000 0  0 450000 0  50000 450000 0  100000 450000 0  150000 450000 0  200000 450000 0  250000 450000 0  300000 450000 0  350000 450000 0  400000 450000 0  450000 450000 0  500000 450000 0  550000 450000 0  600000 450000 0  650000 450000 0  700000 450000 0  750000 450000 0  800000 450000 0  850000 450000 0  900000 450000 0  950000 450000 0  1000000 450000 0  0 500000 0  50000 500000 0  100000 500000 0  150000 500000 0  200000 500000 0  250000 500000 0  300000 500000 0  350000 500000 0  400000 500000 0  450000 500000 0  500000 500000 0  550000 500000 0  600000 500000 0  650000 500000 0  700000 500000 0  750000 500000 0  800000 500000 0  850000 500000 0  900000 500000 0  950000 500000 0  1000000 500000 0  0 550000 0  50000 550000 0  100000 550000 0  150000 550000 0  200000 550000 0  250000 550000 0  300000 550000 0  350000 550000 0  400000 550000 0  450000 550000 0  500000 550000 0  550000 550000 0  600000 550000 0  650000 550000 0  700000 550000 0  750000 550000 0  800000 550000 0  850000 550000 0  900000 550000 0  950000 550000 0  1000000 550000 0  0 600000 0  50000 600000 0  100000 600000 0  150000 600000 0  200000 600000 0  250000 600000 0  300000 600000 0  350000 600000 0  400000 600000 0  450000 600000 0  500000 600000 0  550000 600000 0  600000 600000 0  650000 600000 0  700000 600000 0  750000 600000 0  800000 600000 0  850000 600000 0  900000 600000 0  950000 600000 0  1000000 600000 0  0 650000 0  50000 650000 0  100000 650000 0  150000 650000 0  200000 650000 0  250000 650000 0  300000 650000 0  350000 650000 0  400000 650000 0  450000 650000 0  500000 650000 0  550000 650000 0  600000 650000 0  650000 650000 0  700000 650000 0  750000 650000 0  800000 650000 0  850000 650000 0  900000 650000 0  950000 650000 0  1000000 650000 0  0 700000 0  50000 700000 0  100000 700000 0  150000 700000 0  200000 700000 0  250000 700000 0  300000 700000 0  350000 700000 0  400000 700000 0  450000 700000 0  500000 700000 0  550000 700000 0  600000 700000 0  650000 700000 0  700000 700000 0  750000 700000 0  800000 700000 0  850000 700000 0  900000 700000 0  950000 700000 0  1000000 700000 0  0 750000 0  50000 750000 0  100000 750000 0  150000 750000 0  200000 750000 0  250000 750000 0  300000 750000 0  350000 750000 0  400000 750000 0  450000 750000 0  500000 750000 0  550000 750000 0  600000 750000 0  650000 750000 0  700000 750000 0  750000 750000 0  800000 750000 0  850000 750000 0  900000 750000 0  950000 750000 0  1000000 750000 0  0 800000 0  50000 800000 0  100000 800000 0  150000 800000 0  200000 800000 0  250000 800000 0  300000 800000 0  350000 800000 0  400000 800000 0  450000 800000 0  500000 800000 0  550000 800000 0  600000 800000 0  650000 800000 0  700000 800000 0  750000 800000 0  800000 800000 0  850000 800000 0  900000 800000 0  950000 800000 0  1000000 800000 0  0 850000 0  50000 850000 0  100000 850000 0  150000 850000 0  200000 850000 0  250000 850000 0  300000 850000 0  350000 850000 0  400000 850000 0  450000 850000 0  500000 850000 0  550000 850000 0  600000 850000 0  650000 850000 0  700000 850000 0  750000 850000 0  800000 850000 0  850000 850000 0  900000 850000 0  950000 850000 0  1000000 850000 0  0 900000 0  50000 900000 0  100000 900000 0  150000 900000 0  200000 900000 0  250000 900000 0  300000 900000 0  350000 900000 0  400000 900000 0  450000 900000 0  500000 900000 0  550000 900000 0  600000 900000 0  650000 900000 0  700000 900000 0  750000 900000 0  800000 900000 0  850000 900000 0  900000 900000 0  950000 900000 0  1000000 900000 0  0 950000 0  50000 950000 0  100000 950000 0  150000 950000 0  200000 950000 0  250000 950000 0  300000 950000 0  350000 950000 0  400000 950000 0  450000 950000 0  500000 950000 0  550000 950000 0  600000 950000 0  650000 950000 0  700000 950000 0  750000 950000 0  800000 950000 0  850000 950000 0  900000 950000 0  950000 950000 0  1000000 950000 0  0 1000000 0  50000 1000000 0  100000 1000000 0  150000 1000000 0  200000 1000000 0  250000 1000000 0  300000 1000000 0  350000 1000000 0  400000 1000000 0  450000 1000000 0  500000 1000000 0  550000 1000000 0  600000 1000000 0  650000 1000000 0  700000 1000000 0  750000 1000000 0  800000 1000000 0  850000 1000000 0  900000 1000000 0  950000 1000000 0  1000000 1000000 0  0 1050000 0  50000 1050000 0  100000 1050000 0  150000 1050000 0  200000 1050000 0  250000 1050000 0  300000 1050000 0  350000 1050000 0  400000 1050000 0  450000 1050000 0  500000 1050000 0  550000 1050000 0  600000 1050000 0  650000 1050000 0  700000 1050000 0  750000 1050000 0  800000 1050000 0  850000 1050000 0  900000 1050000 0  950000 1050000 0  1000000 1050000 0  0 1100000 0  50000 1100000 0  100000 1100000 0  150000 1100000 0  200000 1100000 0  250000 1100000 0  300000 1100000 0  350000 1100000 0  400000 1100000 0  450000 1100000 0  500000 1100000 0  550000 1100000 0  600000 1100000 0  650000 1100000 0  700000 1100000 0  750000 1100000 0  800000 1100000 0  850000 1100000 0  900000 1100000 0  950000 1100000 0  1000000 1100000 0  0 1150000 0  50000 1150000 0  100000 1150000 0  150000 1150000 0  200000 1150000 0  250000 1150000 0  300000 1150000 0  350000 1150000 0  400000 1150000 0  450000 1150000 0  500000 1150000 0  550000 1150000 0  600000 1150000 0  650000 1150000 0  700000 1150000 0  750000 1150000 0  800000 1150000 0  850000 1150000 0  900000 1150000 0  950000 1150000 0  1000000 1150000 0  0 1200000 0  50000 1200000 0  100000 1200000 0  150000 1200000 0  200000 1200000 0  250000 1200000 0  300000 1200000 0  350000 1200000 0  400000 1200000 0  450000 1200000 0  500000 1200000 0  550000 1200000 0  600000 1200000 0  650000 1200000 0  700000 1200000 0  750000 1200000 0  800000 1200000 0  850000 1200000 0  900000 1200000 0  950000 1200000 0  1000000 1200000 0  0 1250000 0  50000 1250000 0  100000 1250000 0  150000 1250000 0  200000 1250000 0  250000 1250000 0  300000 1250000 0  350000 1250000 0  400000 1250000 0  450000 1250000 0  500000 1250000 0  550000 1250000 0  600000 1250000 0  650000 1250000 0  700000 1250000 0  750000 1250000 0  800000 1250000 0  850000 1250000 0  900000 1250000 0  950000 1250000 0  1000000 1250000 0  0 1300000 0  50000 1300000 0  100000 1300000 0  150000 1300000 0  200000 1300000 0  250000 1300000 0  300000 1300000 0  350000 1300000 0  400000 1300000 0  450000 1300000 0  500000 1300000 0  550000 1300000 0  600000 1300000 0  650000 1300000 0  700000 1300000 0  750000 1300000 0  800000 1300000 0  850000 1300000 0  900000 1300000 0  950000 1300000 0  1000000 1300000 0  0 1350000 0  50000 1350000 0  100000 1350000 0  150000 1350000 0  200000 1350000 0  250000 1350000 0  300000 1350000 0  350000 1350000 0  400000 1350000 0  450000 1350000 0  500000 1350000 0  550000 1350000 0  600000 1350000 0  650000 1350000 0  700000 135
[...]
<PointData  Vectors="f_15"> 
<DataArray  type="Float64"  Name="f_15"  NumberOfComponents="3" format="ascii">-3.1434687079584698e-10 3.2736276358896632e-10 0.0000000000000000e+00  -5.8668769091910366e-10 2.7339020871013294e-10 0.0000000000000000e+00  -1.0714263068596619e-09 2.4915321654107219e-10 0.0000000000000000e+00  -1.5399648882628130e-09 2.2772335465660576e-10 0.0000000000000000e+00  -1.9689627735272713e-09 2.0332038434850806e-10 0.0000000000000000e+00  -2.3458680420548133e-09 1.7526888254020676e-10 0.0000000000000000e+00  -2.6604913027758541e-09 1.4380954960080616e-10 0.0000000000000000e+00  -2.9045963820024526e-09 1.0950850825116242e-10 0.0000000000000000e+00  -3.0718866624121156e-09 7.3108932807985793e-11 0.0000000000000000e+00  -3.1581138312285645e-09 3.5457389982360404e-11 0.0000000000000000e+00  -3.1611681591399119e-09 -2.5427183837371834e-12 0.0000000000000000e+00  -3.0811219426559113e-09 -3.9966681733954070e-11 0.0000000000000000e+00  -2.9202207800053848e-09 -7.5899682791773949e-11 0.0000000000000000e+00  -2.6828226395948116e-09 -1.0946706763103905e-10 0.0000000000000000e+00  -2.3752954383303659e-09 -1.3986790936036925e-10 0.0000000000000000e+00  -2.0059392217957694e-09 -1.6642578210084929e-10 0.0000000000000000e+00  -1.5852799309408138e-09 -1.8870828308112722e-10 0.0000000000000000e+00  -1.1283271294556420e-09 -2.0685863423975633e-10 0.0000000000000000e+00  -6.6527795449114815e-10 -2.2126869130009040e-10 0.0000000000000000e+00  -2.8703815170434398e-10 -2.1403757066677633e-10 0.0000000000000000e+00  -1.2764104176614982e-10 -1.3065992068208734e-10 0.0000000000000000e+00  -2.6753195047736351e-10 5.7892097751817963e-10 0.0000000000000000e+00  -4.9838948377910825e-10 4.9795608115770380e-10 0.0000000000000000e+00  -8.8924453914094252e-10 5.0333747464343249e-10 0.0000000000000000e+00  -1.3103009662059282e-09 4.7973549285107993e-10 0.0000000000000000e+00  -1.7112355857651163e-09 4.3727593659344889e-10 0.0000000000000000e+00  -2.0729682668040041e-09 3.8114712355582396e-10 0.0000000000000000e+00  -2.3831837243685791e-09 3.1420624023682785e-10 0.0000000000000000e+00  -2.6325871668720239e-09 2.3876418372374168e-10 0.0000000000000000e+00  -2.8141367710955489e-09 1.5705869221582437e-10 0.0000000000000000e+00  -2.9228730655727706e-09 7.1364269883449589e-11 0.0000000000000000e+00  -2.9559143904167442e-09 -1.5999033189917454e-11 0.0000000000000000e+00  -2.9124728510471946e-09 -1.0269271972675501e-10 0.0000000000000000e+00  -2.7938522071315717e-09 -1.8639908330948375e-10 0.0000000000000000e+00  -2.6034204818656208e-09 -2.6486035095804241e-10 0.0000000000000000e+00  -2.3465680110362196e-09 -3.3590636432553840e-10 0.0000000000000000e+00  -2.0307004302086622e-09 -3.9744959174374821e-10 0.0000000000000000e+00  -1.6654500193339709e-09 -4.4738161579468401e-10 0.0000000000000000e+00  -1.2638221031332941e-09 -4.8305937798996488e-10 0.0000000000000000e+00  -8.4726915946877468e-10 -4.9847455009794650e-10 0.0000000000000000e+00  -4.6765093461594590e-10 -4.7023420639746969e-10 0.0000000000000000e+00  -2.1858233968742842e-10 -2.7862429635570887e-10 0.0000000000000000e+00  -2.6433935155558385e-10 1.0245711939372344e-09 0.0000000000000000e+00  -5.0953009093159468e-10 8.7261305905794978e-10 0.0000000000000000e+00  -8.8500720753397049e-10 8.6693249362112546e-10 0.0000000000000000e+00  -1.2764362490605396e-09 8.2910605392111582e-10 0.0000000000000000e+00  -1.6476561241480264e-09 7.5965972593762272e-10 0.0000000000000000e+00  -1.9829474517318450e-09 6.6497817986548955e-10 0.0000000000000000e+00  -2.2710034998728164e-09 5.5020710917577692e-10 0.0000000000000000e+00  -2.5029437573210770e-09 4.1970136616872461e-10 0.0000000000000000e+00  -2.6719516612575925e-09 2.7760453149481661e-10 0.0000000000000000e+00  -2.7732206095781152e-09 1.2805748101778364e-10 0.0000000000000000e+00  -2.8039524322714023e-09 -2.4757445155748227e-11 0.0000000000000000e+00  -2.7633642168007996e-09 -1.7664065930989716e-10 0.0000000000000000e+00  -2.6526838763888325e-09 -3.2342531820978457e-10 0.0000000000000000e+00  -2.4751288244271009e-09 -4.6102697579306006e-10 0.0000000000000000e+00  -2.2358767769570148e-09 -5.8546649550032117e-10 0.0000000000000000e+00  -1.9420663790069363e-09 -6.9282039536189193e-10 0.0000000000000000e+00  -1.6029572475901689e-09 -7.7899176644027387e-10 0.0000000000000000e+00  -1.2307321267771738e-09 -8.3902538449188080e-10 0.0000000000000000e+00  -8.4376076242891647e-10 -8.6520634271009162e-10 0.0000000000000000e+00  -4.8242237360159452e-10 -8.4415521242172879e-10 0.0000000000000000e+00  -2.3341654939485022e-10 -6.2560335781739117e-10 0.0000000000000000e+00  -2.7558233390796702e-10 1.4631280639543979e-09 0.0000000000000000e+00  -5.0545605350226536e-10 1.2946526763710038e-09 0.0000000000000000e+00  -8.7349513216331765e-10 1.2616613699794926e-09 0.0000000000000000e+00  -1.2546997374840240e-09 1.1990815990994022e-09 0.0000000000000000e+00  -1.6121496448296887e-09 1.0981114888361646e-09 0.0000000000000000e+00  -1.9326291219540988e-09 9.6261214145658365e-10 0.0000000000000000e+00  -2.2069261091235436e-09 7.9829121629287448e-10 0.0000000000000000e+00  -2.4272880654497623e-09 6.1100048568343394e-10 0.0000000000000000e+00  -2.5875054813282507e-09 4.0664398261073375e-10 0.0000000000000000e+00  -2.6831090372508306e-09 1.9122230736823763e-10 0.0000000000000000e+00  -2.7114824607447500e-09 -2.9176003516984241e-11 0.0000000000000000e+00  -2.6719134581034699e-09 -2.4842848885494162e-10 0.0000000000000000e+00  -2.5656033275422554e-09 -4.6045367724663379e-10 0.0000000000000000e+00  -2.3956442997022654e-09 -6.5928449139268715e-10 0.0000000000000000e+00  -2.1669695775085173e-09 -8.3911638819618817e-10 0.0000000000000000e+00  -1.8862890267935329e-09 -9.9429985268991889e-10 0.0000000000000000e+00  -1.5620766660367604e-09 -1.1192429059010153e-09 0.0000000000000000e+00  -1.2049615953013844e-09 -1.2082351661206600e-09 0.0000000000000000e+00  -8.3030361417294832e-10 -1.2552903653347846e-09 0.0000000000000000e+00  -4.7544684457959781e-10 -1.2538917428089290e-09 0.0000000000000000e+00  -2.3669013146949163e-10 -1.0476280683682069e-09 0.0000000000000000e+00  -2.9447668149703266e-10 1.8922932739220841e-09 0.0000000000000000e+00  -5.0509373124666161e-10 1.7166028116115440e-09 0.0000000000000000e+00  -8.6703879353206889e-10 1.6604413500435942e-09 0.0000000000000000e+00  -1.2443003118379867e-09 1.5694667625876269e-09 0.0000000000000000e+00  -1.5968811450222495e-09 1.4340893394200958e-09 0.0000000000000000e+00  -1.9112446149793413e-09 1.2566959905339589e-09 0.0000000000000000e+00  -2.1790152743454002e-09 1.0429376961286705e-09 0.0000000000000000e+00  -2.3933353780804757e-09 7.9962322597429848e-10 0.0000000000000000e+00  -2.5486207358890404e-09 5.3411255928996166e-10 0.0000000000000000e+00  -2.6407935144464404e-09 2.5409696537513996e-10 0.0000000000000000e+00  -2.6674624190662742e-09 -3.2533857643484736e-11 0.0000000000000000e+00  -2.6280146656318162e-09 -3.1781342859934292e-10 0.0000000000000000e+00  -2.5236424280850666e-09 -5.9382123764061957e-10 0.0000000000000000e+00  -2.3573171607471596e-09 -8.5280216953685221e-10 0.0000000000000000e+00  -2.1337146304676253e-09 -1.0872755206110847e-09 0.0000000000000000e+00  -1.8590958290026528e-09 -1.2901339979699412e-09 0.0000000000000000e+00  -1.5412143740655244e-09 -1.4547648354992312e-09 0.0000000000000000e+00  -1.1897078149053345e-09 -1.5753094654790797e-09 0.0000000000000000e+00  -8.1929114419195125e-10 -1.6470548023004057e-09 0.0000000000000000e+00  -4.6971415202776731e-10 -1.6654747999507831e-09 0.0000000000000000e+00  -2.4759248334654901e-10 -1.4738421312276003e-09 0.0000000000000000e+00  -3.1970674190007919e-10 2.3174148609891048e-09 0.0000000000000000e+00  -5.1075522190125583e-10 2.1353656546801723e-09 0.0000000000000000e+00  -8.6892390033336406e-10 2.0599790998179792e-09 0.0000000000000000e+00  -1.2460965172469149e-09 1.9404545098159394e-09 0.0000000000000000e+00  -1.5989121086067707e-09 1.7692387208820192e-09 0.0000000000000000e+00  -1.9127383147664098e-09 1.5488334075434703e-09 0.0000000000000000e+00  -2.1791570991831187e-09 1.2851947670010823e-09 0.0000000000000000e+00  -2.3916761584306506e-09 9.8598388666027637e-10 0.0000000000000000e+00  -2.5451162462066494e-09 6.5983992678624571e-10 0.0000000000000000e+00  -2.6357160572184417e-09 3.1599494254530748e-10 0.0000000000000000e+00  -2.6612908632217222e-09 -3.5979106503115342e-11 0.0000000000000000e+00  -2.6213302635989388e-09 -3.8637351580004493e-10 0.0000000000000000e+00  -2.5170302931227799e-09 -7.2552802112542859e-10 0.0000000000000000e+00  -2.3512668419657181e-09 -1.0440109406475696e-09 0.0000000000000000e+00  -2.1285132575979388e-09 -1.3328039424171113e-09 0.0000000000000000e+00  -1.8547170329252963e-09 -1.5835107724361312e-09 0.0000000000000000e+00  -1.5372497305103507e-09 -1.7886354839963609e-09 0.0000000000000000e+00  -1.1855315589729317e-09 -1.9420036750510652e-09 0.0000000000000000e+00  -8.1501508287766410e-10 -2.0390775332386080e-09 0.0000000000000000e+00  -4.6917541397169494e-10 -2.0752978071776019e-09 0.0000000000000000e+00  -2.6519283113698615e-10 -1.8937948741138474e-09 0.0000000000000000e+00  -3.5081661986809418e-10 2.7433311617877727e-09 0.0000000000000000e+00  -5.2212662004401249e-10 2.5547032963305996e-09 0.0000000000000000e+00  -8.7893340769832649e-10 2.4619007464714867e-09 0.0000000000000000e+00  -1.2589389503704326e-09 2.3145309261557233e-09 0.0000000000000000e+00  -1.6152391264184258e-09 2.1068647826800855e-09 0.0000000000000000e+00  -1.9319974613493295e-09 1.8424481344157012e-09 0.0000000000000000e+00  -2.2004018284457269e-09 1.5280592669515760e-09 0.0000000000000000e+00  -2.4139714047113128e-09 1.1723667958648190e-09 0.0000000000000000e+00  -2.5677020952725325e-09 7.8527757472962325e-10 0.0000000000000000e+00  -2.6580300844742618e-09 3.7749525438650511e-10 0.0000000000000000e+00  -2.6829258512173798e-09 -3.9809673427595813e-11 0.0000000000000000e+00  -2.6419672316345151e-09 -4.5527163119425188e-10 0.0000000000000000e+00  -2.5363648832200329e-09 -8.5757522772911284e-10 0.0000000000000000e+00  -2.3689383180315763e-09 -1.2356952407975292e-09 0.0000000000000000e+00  -2.1440461035348904e-09 -1.5791499963937354e-09 0.0000000000000000e+00  -1.8674980920876992e-09 -1.8782910800664871e-09 0.0000000000000000e+00  -1.5466025929418734e-09 -2.1246595497053618e-09 0.0000000000000000e+00  -1.1910469916885196e-09 -2.3114212468554475e-09 0.0000000000000000e+00  -8.1753975843965769e-10 -2.4335169856586122e-09 0.0000000000000000e+00  -4.7366915159886497e-10 -2.4857169460894059e-09 0.0000000000000000e+00  -2.8860487689955081e-10 -2.3098997147667778e-09 0.0000000000000000e+00  -3.8762398207247564e-10 3.1736715290939765e-09 0.0000000000000000e+00  -5.3813864450608573e-10 2.9781440313851757e-09 0.0000000000000000e+00  -8.9527695093889765e-10 2.8687568689725509e-09 0.0000000000000000e+00  -1.2801257235701206e-09 2.6939558604799031e-09 0.0000000000000000e+00  -1.6418823024191776e-09 2.4494331731143699e-09 0.0000000000000000e+00  -1.9635191239646052e-09 2.1400742847603745e-09 0.0000000000000000e+00  -2.2357537044832488e-09 1.7738446012066855e-09 0.0000000000000000e+00  -2.4519662378566592e-09 1.3606370779985044e-09 0.0000000000000000e+00  -2.6071907251728367e-09 9.1170619843716887e-10 0.0000000000000000e+00  -2.6979715123334056e-09 4.3922612398390141e-10 0.0000000000000000e+00  -2.7223875215619576e-09 -4.4075951122681515e-11 0.0000000000000000e+00  -2.6800876521909008e-09 -5.2523601606020491e-10 0.0000000000000000e+00  -2.5723029530213525e-09 -9.9134293582432369e-10 0.0000000000000000e+00  -2.4018289714450013e-09 -1.4298244552503293e-09 0.0000000000000000e+00  -2.1729820001027742e-09 -1.8287509091907854e-09 0.0000000000000000e+00  -1.8915645224463572e-09 -2.1771760803703321e-09 0.0000000000000000e+00  -1.5650152322214581e-09 -2.4655276759705951e-09 0.0000000000000000e+00  -1.2035094114101533e-09 -2.6860251134118558e-09 0.0000000000000000e+00  -8.2518923514758869e-10 -2.8327353783866682e-09 0.0000000000000000e+00  -4.8210803360349727e-10 -2.8995962727644425e-09 0.0000000000000000e+00  -3.1747934433613648e-10 -2.7261866866705790e-09 0.0000000000000000e+00  -4.3009374427995494e-10 3.6105399105099850e-09 0.0000000000000000e+00  -5.5739568338433797e-10 3.4080554826717835e-09 0.0000000000000000e+00  -9.1535564289517944e-10 3.2823809705752875e-09 0.0000000000000000e+00  -1.3058912353020561e-09 3.0801493858255019e-09 0.0000000000000000e+00  -1.6738223594621488e-09 2.7982501428004879e-09 0.0000000000000000e+00  -2.0009380818988324e-09 2.4429843152767400e-09 0.0000000000000000e+00  -2.2775217685970881e-09 2.0237202247709258e-09 0.0000000000000000e+00  -2.4968046155289777e-09 1.5517595281902078e-09 0.0000000000000000e+00  -2.6538275140679646e-09 1.0398080861953116e-09 0.0000000000000000e+00  -2.7452156478729398e-09 5.0154162672554374e-10 0.0000000000000000e+00  -2.7691393988969075e-09 -4.8773475835387892e-11 0.0000000000000000e+00  -2.7253095280770741e-09 -5.9661609259204025e-10 0.0000000000000000e+00  -2.6149746633164597e-09 -1.1275218631077451e-09 0.0000000000000000e+00  -2.4409140990834806e-09 -1.6273940492870451e-09 0.0000000000000000e+00  -2.2074286038102103e-09 -2.0828366309005564e-09 0.0000000000000000e+00  -1.9203655281896708e-09 -2.4815261482183281e-09 0.0000000000000000e+00  -1.5873651868368892e-09 -2.8126244524832304e-09 0.0000000000000000e+00  -1.2191578673497414e-09 -3.0671974748386699e-09 0.0000000000000000e+00  -8.3539872988667621e-10 -3.2382595013936291e-09 0.0000000000000000e+00  -4.9304361435153058e-10 -3.3188939779392609e-09 0.0000000000000000e+00  -3.5168960589221350e-10 -3.1457276216353019e-09 0.0000000000000000e+00  -4.7827969208319098e-10 4.0543094774182692e-09 0.0000000000000000e+00  -5.7825930029176750e-10 3.8453197519642661e-09 0.0000000000000000e+00  -9.3597958732120510e-10 3.7033064888196496e-09 0.0000000000000000e+00  -1.3315692836956762e-09 3.4733079795318526e-09 0.0000000000000000e+00  -1.7049497595262345e-09 3.1533262833421665e-09 0.0000000000000000e+00  -2.0367207885577498e-09 2.7511320178615571e-09 0.0000000000000000e+00  -2.3168233031860996e-09 2.2776387051463257e-09 0.0000000000000000e+00  -2.5384241782291614e-09 1.7456998721360656e-09 0.0000000000000000e+00  -2.6966335866588824e-09 1.1695648034957146e-09 0.0000000000000000e+00  -2.7882006141272880e-09 5.6444051761921528e-10 0.0000000000000000e+00  -2.8114115654769227e-09 -5.3887381859396080e-11 0.0000000000000000e+00  -2.7660433246932379e-09 -6.6938704197682068e-10 0.0000000000000000e+00  -2.6533468583271850e-09 -1.2660871499016119e-09 0.0000000000000000e+00  -2.4760559681404614e-09 -1.8283869843546916e-09 0.0000000000000000e+00  -2.2384216149664099e-09 -2.3413976665568532e-09 0.0000000000000000e+00  -1.9463043347319068e-09 -2.7913328334397612e-09 0.0000000000000000e+00  -1.6075185763286173e-09 -3.1659483658377767e-09 0.0000000000000000e+00  -1.2333297169796504e-09 -3.4549947808191843e-09 0.0000000000000000e+00  -8.4495987106117180e-10 -3.6503174151792856e-09 0.0000000000000000e+00  -5.0476321759948701e-10 -3.7441479443497488e-09 0.0000000000000000e+00  -3.9121742056499616e-10 -3.5700367120910491e-09 0.0000000000000000e+00  -5.3229357302621681e-10 4.5033744907425463e-09 0.0000000000000000e+00  -5.9881804607025031e-10 4.2890418564021766e-09 0.0000000000000000e+00  -9.5335062989827926e-10 4.1304050502618611e-09 0.0000000000000000e+00  -1.3515411255345504e-09 3.8720587522848594e-09 0.0000000000000000e+00  -1.7278998262951003e-09 3.5131491675402281e-09 0.0000000000000000e+00  -2.0618406132501188e-09 3.0630102554774484e-09 0.0000000000000000e+00  -2.3431034047431241e-09 2.5342317095511104e-09 0.0000000000000000e+00  -2.5649558152402292e-09 1.9413382439490230e-09 0.0000000000000000e+00  -2.7227271697338073e-09 1.3001903563454997e-09 0.0000000000000000e+00  -2.8134069756362441e-09 6.2752937291471718e-10 0.0000000000000000e+00  -2.8354688745943965e-09 -5.9391421483719610e-11 0.0000000000000000e+00  -2.7887753700416211e-09 -7.4311028253360101e-10 0.0000000000000000e+00  -2.6745474485004829e-09 -1.4062271039765630e-09 0.0000000000000000e+00  -2.4953972865474838e-09 -2.0316814748422474e-09 0.0000000000000000e+00  -2.2554203738944336e-09 -2.6030785224217525e-09 0.0000000000000000e+00  -1.9603720849670216e-09 -3.1050891414473940e-09 0.0000000000000000e+00  -1.6181269645917269e-09 -3.5239279451217156e-09 0.0000000000000000e+00  -1.2404022055959387e-09 -3.8478749428750399e-09 0.0000000000000000e+00  -8.5002576070049557e-10 -4.0674904822358589e-09 0.0000000000000000e+00  -5.1526865703911542e-10 -4.1741419053172754e-09 0.0000000000000000e+00  -4.3610995174857895e-10 -3.9988174180373561e-09 0.0000000000000000e+00  -5.9228849579658511e-10 4.9538198525205158e-09 0.0000000000000000e+00  -6.1681524461015883e-10 4.7362194320841429e-09 0.0000000000000000e+00  -9.6294078639959401e-10 4.5605182245066614e-09 0.0000000000000000e+00  -1.3590525589439224e-09 4.2730836838615994e-09 0.0000000000000000e+00  -1.7337740775200590e-09 3.8743515779848693e-09 0.0000000000000000e+00  -2.0653732028433457e-09 3.3753807202584202e-09 0.0000000000000000e+00  -2.3435967556500558e-09 2.7905948218584688e-09 0.0000000000000000e+00  -2.5620679693454721e-09 2.1363042806771886e-09 0.0000000000000000e+00  -2.7165806559107940e-09 1.4300198384465392e-09 0.0000000000000000e+00  -2.8045629242335901e-09 6.8997175141407507e-10 0.0000000000000000e+00  -2.8248000970621130e-09 -6.5233525045841293e-11 0.0000000000000000e+00  -2.7772756222000164e-09 -8.1685477840209284e-10 0.0000000000000000e+00  -2.6631248934949504e-09 -1.5462074268897708e-09 0.0000000000000000e+00  -2.4847036114230398e-09 -2.2348686138980477e-09 0.0000000000000000e+00  -2.2457610081967864e-09 -2.8649572558849255e-09 0.0000000000000000e+00  -1.9517315238262000e-09 -3.4195323652967822e-09 0.0000000000000000e+00  -1.6103444327591827e-09 -3.8831224195380492e-09 0.0000000000000000e+00  -1.2336201082799131e-09 -4.2423552402806782e-09 0.0000000000000000e+00  -8.4600683112081267e-10 -4.4863505734445043e-09 0.0000000000000000e+00  -5.2220949865201918e-10 -4.6055659048054501e-09 0.0000000000000000e+00  -4.8645828767778641e-10 -4.4297016937174456e-09 0.0000000000000000e+00  -6.5845236201700858e-10 5.3989908641024514e-09 0.0000000000000000e+00  -6.2955597593668971e-10 5.1813357920852262e-09 0.0000000000000000e+00  -9.5931451457914190e-10 4.9880220952707935e-09 0.0000000000000000e+00  -1.3459443031500563e-09 4.6706682641534344e-09 0.0000000000000000e+00  -1.7117613474699774e-09 4.2312734208598881e-09 0.0000000000000000e+00  -2.0339907863022354e-09 3.6828767802018033e-09 0.0000000000000000e+00  -2.3026899359042270e-09 3.0419491423340614e-09 0.0000000000000000e+00  -2.5122089984893577e-09 2.3267114228068983e-09 0.0000000000000000e+00  -2.6591697039274841e-09 1.5563295864381795e-09 0.0000000000000000e+00  -2.7417359365534380e-09 7.5040510830057607e-10 0.0000000000000000e+00  -2.7591920725208021e-09 -7.1316618211781946e-11 0.0000000000000000e+00  -2.7116947534780765e-09 -8.8907766857557695e-10 0.0000000000000000e+00  -2.6002064331393767e-09 -1.6831614257320245e-09 0.0000000000000000e+00  -2.4266160683200918e-09 -2.4339674675145474e-09 0.0000000000000000e+00  -2.1940288455831216e-09 -3.1222025444800342e-09 0.0000000000000000e+00  -1.9072220922850761e-09 -3.7292584975497797e-09 0.0000000000000000e+00  -1.5734624576232984e-09 -4.2378064422095484e-09 0.0000000000000000e+00  -1.2048421607891823e-09 -4.6325813254856958e-09 0.0000000000000000e+00  -8.2740491635752967e-10 -4.9010319843518461e-09 0.0000000000000000e+00  -5.2279110571865438e-10 -5.0326107900526199e-09 0.0000000000000000e+00  -5.4238448154171809e-10 -4.8579086359146554e-09 0.0000000000000000e+00  -7.3101178658074622e-10 5.8289476320992849e-09 0.0000000000000000e+00  -6.3379930040267370e-10 5.6158514589635105e-09 0.0000000000000000e+00  -9.3590998221707673e-10 5.4042923298333173e-09 0.0000000000000000e+00  -1.3023119427484072e-09 5.0561423551753959e-09 0.0000000000000000e+00  -1.6486624982817450e-09 4.5754000153529401e-09 0.0000000000000000e+00  -1.95134045