<?xml version="1.0"?>
<VTKFile type="UnstructuredGrid"  version="0.1"  >
<UnstructuredGrid>
<Piece  NumberOfPoints="651" NumberOfCells="1200">
<Points>
<DataArray  type="Float64"  NumberOfComponents="3"  format="ascii">0 0 0  50000 0 0  100000 0 0  150000 0 0  200000 0 0  250000 0 0  300000 0 0  350000 0 0  400000 0 0  450000 0 0  500000 0 0  550000 0 0  600000 0 0  650000 0 0  700000 0 0  750000 0 0  800000 0 0  850000 0 0  900000 0 0  950000 0 0  1000000 0 0  0 50000 0  50000 50000 0  100000 50000 0  150000 50000 0  200000 50000 0  250000 50000 0  300000 50000 0  350000 50000 0  400000 50000 0  450000 50000 0  500000 50000 0  550000 50000 0  600000 50000 0  650000 50000 0  700000 50000 0  750000 50000 0  800000 50000 0  850000 50000 0  900000 50000 0  950000 50000 0  1000000 50000 0  0 100000 0  50000 100000 0  100000 100000 0  150000 100000 0  200000 100000 0  250000 100000 0  300000 100000 0  350000 100000 0  400000 100000 0  450000 100000 0  500000 100000 0  550000 100000 0  600000 100000 0  650000 100000 0  700000 100000 0  750000 100000 0  800000 100000 0  850000 100000 0  900000 100000 0  950000 100000 0  1000000 100000 0  0 150000 0  50000 150000 0  100000 150000 0  150000 150000 0  200000 150000 0  250000 150000 0  300000 150000 0  350000 150000 0  400000 150000 0  450000 150000 0  500000 150000 0  550000 150000 0  600000 150000 0  650000 150000 0  700000 150000 0  750000 150000 0  800000 150000 0  850000 150000 0  900000 150000 0  950000 150000 0  1000000 150000 0  0 200000 0  50000 200000 0  100000 200000 0  150000 200000 0  200000 200000 0  250000 200000 0  300000 200000 0  350000 200000 0  400000 200000 0  450000 200000 0  500000 200000 0  550000 200000 0  600000 200000 0  650000 200000 0  700000 200000 0  750000 200000 0  800000 200000 0  850000 200000 0  900000 200000 0  950000 200000 0  1000000 200000 0  0 250000 0  50000 250000 0  100000 250000 0  150000 250000 0  200000 250000 0  250000 250000 0  300000 250000 0  350000 250000 0  400000 250000 0  450000 250000 0  500000 250000 0  550000 250000 0  600000 250000 0  650000 250000 0  700000 250000 0  750000 250000 0  800000 250000 0  850000 250000 0  900000 250000 0  950000 250000 0  1000000 250000 0  0 300000 0  50000 300000 0  100000 300000 0  150000 300000 0  200000 300000 0  250000 300000 0  300000 300000 0  350000 300000 0  400000 300000 0  450000 300000 0  500000 300000 0  550000 300000 0  600000 300000 0  650000 300000 0  700000 300000 0  750000 300000 0  800000 300000 0  850000 300000 0  900000 300000 0  950000 300000 0  1000000 300000 0  0 350000 0  50000 350000 0  100000 350000 0  150000 350000 0  200000 350000 0  250000 350000 0  300000 350000 0  350000 350000 0  400000 350000 0  450000 350000 0  500000 350000 0  550000 350000 0  600000 350000 0  650000 350000 0  700000 350000 0  750000 350000 0  800000 350000 0  850000 350000 0  900000 350000 0  950000 350000 0  1000000 350000 0  0 400000 0  50000 400000 0  100000 400000 0  150000 400000 0  200000 400000 0  250000 400000 0  300000 400000 0  350000 400000 0  400000 400000 0  450000 400000 0  500000 400000 0  550000 400000 0  600000 400000 0  650000 400000 0  700000 400000 0  750000 400000 0  800000 400000 0  850000 400000 0  900000 400000 0  950000 400000 0  1000000 400000 0  0 450000 0  50000 450000 0  100000 450000 0  150000 450000 0  200000 450000 0  250000 450000 0  300000 450000 0  350000 450000 0  400000 450000 0  450000 450000 0  500000 450000 0  550000 450000 0  600000 450000 0  650000 450000 0  700000 450000 0  750000 450000 0  800000 450000 0  850000 450000 0  900000 450000 0  950000 450000 0  1000000 450000 0  0 500000 0  50000 500000 0  100000 500000 0  150000 500000 0  200000 500000 0  250000 500000 0  300000 500000 0  350000 500000 0  400000 500000 0  450000 500000 0  500000 500000 0  550000 500000 0  600000 500000 0  650000 500000 0  700000 500000 0  750000 500000 0  800000 500000 0  850000 500000 0  900000 500000 0  950000 500000 0  1000000 500000 0  0 550000 0  50000 550000 0  100000 550000 0  150000 550000 0  200000 550000 0  250000 550000 0  300000 550000 0  350000 550000 0  400000 550000 0  450000 550000 0  500000 550000 0  550000 550000 0  600000 550000 0  650000 550000 0  700000 550000 0  750000 550000 0  800000 550000 0  850000 550000 0  900000 550000 0  950000 550000 0  1000000 550000 0  0 600000 0  50000 600000 0  100000 600000 0  150000 600000 0  200000 600000 0  250000 600000 0  300000 600000 0  350000 600000 0  400000 600000 0  450000 600000 0  500000 600000 0  550000 600000 0  600000 600000 0  650000 600000 0  700000 600000 0  750000 600000 0  800000 600000 0  850000 600000 0  900000 600000 0  950000 600000 0  1000000 600000 0  0 650000 0  50000 650000 0  100000 650000 0  150000 650000 0  200000 650000 0  250000 650000 0  300000 650000 0  350000 650000 0  400000 650000 0  450000 650000 0  500000 650000 0  550000 650000 0  600000 650000 0  650000 650000 0  700000 650000 0  750000 650000 0  800000 650000 0  850000 650000 0  900000 650000 0  950000 650000 0  1000000 650000 0  0 700000 0  50000 700000 0  100000 700000 0  150000 700000 0  200000 700000 0  250000 700000 0  300000 700000 0  350000 700000 0  400000 700000 0  450000 700000 0  500000 700000 0  550000 700000 0  600000 700000 0  650000 700000 0  700000 700000 0  750000 700000 0  800000 700000 0  850000 700000 0  900000 700000 0  950000 700000 0  1000000 700000 0  0 750000 0  50000 750000 0  100000 750000 0  150000 750000 0  200000 750000 0  250000 750000 0  300000 750000 0  350000 750000 0  400000 750000 0  450000 750000 0  500000 750000 0  550000 750000 0  600000 750000 0  650000 750000 0  700000 750000 0  750000 750000 0  800000 750000 0  850000 750000 0  900000 750000 0  950000 750000 0  1000000 750000 0  0 800000 0  50000 800000 0  100000 800000 0  150000 800000 0  200000 800000 0  250000 800000 0  300000 800000 0  350000 800000 0  400000 800000 0  450000 800000 0  500000 800000 0  550000 800000 0  600000 800000 0  650000 800000 0  700000 800000 0  750000 800000 0  800000 800000 0  850000 800000 0  900000 800000 0  950000 800000 0  1000000 800000 0  0 850000 0  50000 850000 0  100000 850000 0  150000 850000 0  200000 850000 0  250000 850000 0  300000 850000 0  350000 850000 0  400000 850000 0  450000 850000 0  500000 850000 0  550000 850000 0  600000 850000 0  650000 850000 0  700000 850000 0  750000 850000 0  800000 850000 0  850000 850000 0  900000 850000 0  950000 850000 0  1000000 850000 0  0 900000 0  50000 900000 0  100000 900000 0  150000 900000 0  200000 900000 0  250000 900000 0  300000 900000 0  350000 900000 0  400000 900000 0  450000 900000 0  500000 900000 0  550000 900000 0  600000 900000 0  650000 900000 0  700000 900000 0  750000 900000 0  800000 900000 0  850000 900000 0  900000 900000 0  950000 900000 0  1000000 900000 0  0 950000 0  50000 950000 0  100000 950000 0  150000 950000 0  200000 950000 0  250000 950000 0  300000 950000 0  350000 950000 0  400000 950000 0  450000 950000 0  500000 950000 0  550000 950000 0  600000 950000 0  650000 950000 0  700000 950000 0  750000 950000 0  800000 950000 0  850000 950000 0  900000 950000 0  950000 950000 0  1000000 950000 0  0 1000000 0  50000 1000000 0  100000 1000000 0  150000 1000000 0  200000 1000000 0  250000 1000000 0  300000 1000000 0  350000 1000000 0  400000 1000000 0  450000 1000000 0  500000 1000000 0  550000 1000000 0  600000 1000000 0  650000 1000000 0  700000 1000000 0  750000 1000000 0  800000 1000000 0  850000 1000000 0  900000 1000000 0  950000 1000000 0  1000000 1000000 0  0 1050000 0  50000 1050000 0  100000 1050000 0  150000 1050000 0  200000 1050000 0  250000 1050000 0  300000 1050000 0  350000 1050000 0  400000 1050000 0  450000 1050000 0  500000 1050000 0  550000 1050000 0  600000 1050000 0  650000 1050000 0  700000 1050000 0  750000 1050000 0  800000 1050000 0  850000 1050000 0  900000 1050000 0  950000 1050000 0  1000000 1050000 0  0 1100000 0  50000 1100000 0  100000 1100000 0  150000 1100000 0  200000 1100000 0  250000 1100000 0  300000 1100000 0  350000 1100000 0  400000 1100000 0  450000 1100000 0  500000 1100000 0  550000 1100000 0  600000 1100000 0  650000 1100000 0  700000 1100000 0  750000 1100000 0  800000 1100000 0  850000 1100000 0  900000 1100000 0  950000 1100000 0  1000000 1100000 0  0 1150000 0  50000 1150000 0  100000 1150000 0  150000 1150000 0  200000 1150000 0  250000 1150000 0  300000 1150000 0  350000 1150000 0  400000 1150000 0  450000 1150000 0  500000 1150000 0  550000 1150000 0  600000 1150000 0  650000 1150000 0  700000 1150000 0  750000 1150000 0  800000 1150000 0  850000 1150000 0  900000 1150000 0  950000 1150000 0  1000000 1150000 0  0 1200000 0  50000 1200000 0  100000 1200000 0  150000 1200000 0  200000 1200000 0  250000 1200000 0  300000 1200000 0  350000 1200000 0  400000 1200000 0  450000 1200000 0  500000 1200000 0  550000 1200000 0  600000 1200000 0  650000 1200000 0  700000 1200000 0  750000 1200000 0  800000 1200000 0  850000 1200000 0  900000 1200000 0  950000 1200000 0  1000000 1200000 0  0 1250000 0  50000 1250000 0  100000 1250000 0  150000 1250000 0  200000 1250000 0  250000 1250000 0  300000 1250000 0  350000 1250000 0  400000 1250000 0  450000 1250000 0  500000 1250000 0  550000 1250000 0  600000 1250000 0  650000 1250000 0  700000 1250000 0  750000 1250000 0  800000 1250000 0  850000 1250000 0  900000 1250000 0  950000 1250000 0  1000000 1250000 0  0 1300000 0  50000 1300000 0  100000 1300000 0  150000 1300000 0  200000 1300000 0  250000 1300000 0  300000 1300000 0  350000 1300000 0  400000 1300000 0  450000 1300000 0  500000 1300000 0  550000 1300000 0  600000 1300000 0  650000 1300000 0  700000 1300000 0  750000 1300000 0  800000 1300000 0  850000 1300000 0  900000 1300000 0  950000 1300000 0  1000000 1300000 0  0 1350000 0  50000 1350000 0  100000 1350000 0  150000 1350000 0  200000 1350000 0  250000 1350000 0  300000 1350000 0  350000 1350000 0  400000 1350000 0  450000 1350000 0  500000 1350000 0  550000 1350000 0  600000 1350000 0  650000 1350000 0  700000 135
[...]
<PointData  Scalars="f_5981"> 
<DataArray  type="Float64"  Name="f_5981"  format="ascii">-8.1698469188151801e+00  -8.1674792146795649e+00  -8.1557609384222314e+00  -8.1346567438422905e+00  -8.1047154509569399e+00  -8.0667348929717146e+00  -8.0217249297232502e+00  -7.9708787165345143e+00  -7.9155407532329907e+00  -7.8571710967110704e+00  -7.7973066356225402e+00  -7.7375204761429321e+00  -7.6793804953815856e+00  -7.6244081301831894e+00  -7.5740385099133736e+00  -7.5295831962763646e+00  -7.4921973793365284e+00  -7.4628552156734242e+00  -7.4423392071539745e+00  -7.4312020203510736e+00  -7.4288043678859008e+00  -8.1721049401899464e+00  -8.1697897916343916e+00  -8.1579023197659986e+00  -8.1366579948233717e+00  -8.1065612605237654e+00  -8.0683949303874538e+00  -8.0231651650975895e+00  -7.9720669344512158e+00  -7.9164493582452700e+00  -7.8577786817189335e+00  -7.7975989117824671e+00  -7.7374907890928419e+00  -7.6790300069702990e+00  -7.6237456713689280e+00  -7.5730800309298143e+00  -7.5283505154597741e+00  -7.4907149851734927e+00  -7.4611399869714790e+00  -7.4403657628281028e+00  -7.4288340866264395e+00  -7.4264367432502461e+00  -8.1831208440716345e+00  -8.1809688578728235e+00  -8.1688082019520873e+00  -8.1469221876116862e+00  -8.1159154259511599e+00  -8.0766107946345844e+00  -8.0300448087255951e+00  -7.9774445799962557e+00  -7.9201956411774486e+00  -7.8598045105656995e+00  -7.7978581518655572e+00  -7.7359816388572096e+00  -7.6757950733501863e+00  -7.6188707708534000e+00  -7.5666917580846125e+00  -7.5206126961329280e+00  -7.4818244531088993e+00  -7.4513235647751177e+00  -7.4298865895857862e+00  -7.4180378624260923e+00  -7.4158929302944898e+00  -8.2027537659749470e+00  -8.2006268693894189e+00  -8.1880110190700623e+00  -8.1650845644492343e+00  -8.1325138254235014e+00  -8.0911977445262622e+00  -8.0422419762010815e+00  -7.9869426011223670e+00  -7.9267576177123811e+00  -7.8632701829045271e+00  -7.7981471937477744e+00  -7.7330953889930703e+00  -7.6698164654195198e+00  -7.6099624565868140e+00  -7.5550926141537396e+00  -7.5066332024348537e+00  -7.4658419608000095e+00  -7.4337791688865931e+00  -7.4112842914465284e+00  -7.3989323460131615e+00  -7.3967867232682476e+00  -8.2306932674460196e+00  -8.2285060278104449e+00  -8.2151726839196755e+00  -8.1907805653026511e+00  -8.1560217557047014e+00  -8.1118726324181143e+00  -8.0595323450259055e+00  -8.0003978045978510e+00  -7.9360340072880353e+00  -7.8681365342231864e+00  -7.7984886848561281e+00  -7.7289155850856144e+00  -7.6612370383845825e+00  -7.5972205907299104e+00  -7.5385362362475625e+00  -7.4867143307929434e+00  -7.4431084323162935e+00  -7.4088640242837061e+00  -7.3848877662716408e+00  -7.3717784178504466e+00  -7.3695126836266933e+00  -8.2667606783766487e+00  -8.2644491669343179e+00  -8.2501255427506077e+00  -8.2238165321922718e+00  -8.1862401828851237e+00  -8.1384525850390155e+00  -8.0817625468498893e+00  -8.0176937668053760e+00  -7.9479493886231962e+00  -7.8743712028660786e+00  -7.7988939926251373e+00  -7.7234968138080635e+00  -7.6501529126875401e+00  -7.5807797964193213e+00  -7.5171909176196250e+00  -7.4610504674162268e+00  -7.4138325863338714e+00  -7.3767846545497973e+00  -7.3508861468406552e+00  -7.3367582593473468e+00  -7.3343076795559679e+00  -8.3108995629898903e+00  -8.3084094705038538e+00  -8.2928252872554644e+00  -8.2641363647985049e+00  -8.2231009984274532e+00  -8.1708663819746032e+00  -8.1088677021268971e+00  -8.0387790496151741e+00  -7.9624704256352095e+00  -7.8819616657129057e+00  -7.7993725482065299e+00  -7.7168702299065783e+00  -7.6366154211515500e+00  -7.5607086678421247e+00  -7.4911380710071294e+00  -7.4297297296654241e+00  -7.3781017922180707e+00  -7.3376209303181259e+00  -7.3093511833124305e+00  -7.2939473122458587e+00  -7.2912633107869764e+00  -8.3631506133729427e+00  -8.3604316912726073e+00  -8.3433191077914355e+00  -8.3117799735125999e+00  -8.2666313190524328e+00  -8.2091291203068959e+00  -8.1408549492399693e+00  -8.0636573972714860e+00  -7.9796012353196879e+00  -7.8909149551935940e+00  -7.7999355281565741e+00  -7.7090510882447454e+00  -7.6206426070531590e+00  -7.5370256479207356e+00  -7.4603932795490877e+00  -7.3927611826082149e+00  -7.3359155496314372e+00  -7.2913622251138586e+00  -7.2602663196310493e+00  -7.2433313971972382e+00  -7.2403701811494381e+00  -8.4236237873662319e+00  -8.4206271145267841e+00  -8.4017175686704686e+00  -8.3668500162515986e+00  -8.3169196465820416e+00  -8.2533125716191176e+00  -8.1777800083408163e+00  -8.0923708400799566e+00  -7.9993728460994475e+00  -7.9012532515553389e+00  -7.8005974216221734e+00  -7.7000461734028169e+00  -7.6022324276625408e+00  -7.5097179156748215e+00  -7.4249306752795468e+00  -7.3501040970904601e+00  -7.2872179594871183e+00  -7.2379398142582811e+00  -7.2035554499621748e+00  -7.1848335951647977e+00  -7.1815527211369172e+00  -8.4924684865621511e+00  -8.4891449461410993e+00  -8.4681659438162704e+00  -8.4294815509509196e+00  -8.3740849904573356e+00  -8.3035163964679199e+00  -8.2197227085670015e+00  -8.1249808706773781e+00  -8.0218307191826721e+00  -7.9130080767157001e+00  -7.8013769900869994e+00  -7.6898614257846676e+00  -7.5813767553363700e+00  -7.4787612532204850e+00  -7.3847078716689483e+00  -7.3016967196452454e+00  -7.2319285658805539e+00  -7.1772577567360418e+00  -7.1391127247274797e+00  -7.1183443474561914e+00  -7.1147014403197320e+00  -8.5698406613658751e+00  -8.5661399683855368e+00  -8.5428125416711982e+00  -8.4998103610309439e+00  -8.4382456288386702e+00  -8.3598388353859523e+00  -8.2667614314298081e+00  -8.1615482150233642e+00  -8.0470209916034783e+00  -7.9262137196003017e+00  -7.8022981788456480e+00  -7.6785102555657954e+00  -7.5580766370053798e+00  -7.4441414366340615e+00  -7.3396923359418977e+00  -7.2474861893900311e+00  -7.1699742451767818e+00  -7.1092254263199326e+00  -7.0668352231333369e+00  -7.0437547731139007e+00  -7.0397069303967239e+00  -8.6558653483643724e+00  -8.6517353603968861e+00  -8.6257722196536886e+00  -8.5779371471722907e+00  -8.5094844469532820e+00  -8.4223443942718337e+00  -8.3189447890072650e+00  -8.2021101877890175e+00  -8.0749749301545233e+00  -7.9408997762982789e+00  -7.8033912130060870e+00  -7.6660231173172599e+00  -7.5323597405979514e+00  -7.4058784809027536e+00  -7.2898910058806088e+00  -7.1874619207084587e+00  -7.1013248213077755e+00  -7.0337942174798354e+00  -6.9866602511371072e+00  -6.9609945567565310e+00  -6.9564980420479188e+00  -8.7505929411747800e+00  -8.7459791210212483e+00  -8.7170833251666409e+00  -8.6638852845780274e+00  -8.5878082176524195e+00  -8.4910259743445433e+00  -8.3762583968853335e+00  -8.2466540400617241e+00  -8.1056905830355053e+00  -7.9570823669122364e+00  -7.8046940046059818e+00  -7.6524590227992046e+00  -7.5043011957670940e+00  -7.3640554414639237e+00  -7.2353852839371893e+00  -7.1216948842593926e+00  -7.0260349020392718e+00  -6.9510006701422826e+00  -6.8986090926082335e+00  -6.8700760996964760e+00  -6.8650861713140099e+00  -8.8539472877131367e+00  -8.8487922267929857e+00  -8.8166560760853674e+00  -8.7575498287929268e+00  -8.6730982221326816e+00  -8.5657588046664248e+00  -8.4385843488487957e+00  -8.2950843807042336e+00  -8.1391103247204644e+00  -7.9747534114121459e+00  -7.8062539654153698e+00  -7.6379197866691193e+00  -7.4740492740217794e+00  -7.3188537734321635e+00  -7.1763738172900959e+00  -7.0503853959226381e+00  -6.9442945029110899e+00  -6.8610183302544332e+00  -6.8028392375082181e+00  -6.7711468424921826e+00  -6.7656176115134681e+00  -8.9656634703871898e+00  -8.9599063754801342e+00  -8.9242100659248784e+00  -8.8586351521228401e+00  -8.7650493264227141e+00  -8.6462432366896156e+00  -8.5056506805957657e+00  -8.3471824482515853e+00  -8.1750927506613031e+00  -7.9938672131388255e+00  -7.8081303130261368e+00  -7.6225679239303821e+00  -7.4418575958256881e+00  -7.2705975786219099e+00  -7.1132258398384067e+00  -6.9739223806139661e+00  -6.8564913507493275e+00  -6.7642209702080160e+00  -6.6997074101345087e+00  -6.6645519138273768e+00  -6.6584361142293034e+00  -9.0852128437837170e+00  -9.0787888489588813e+00  -9.0391981587642736e+00  -8.9665780929480903e+00  -8.8630941028294856e+00  -8.7319329593296278e+00  -8.5769676779412816e+00  -8.4025546764819108e+00  -8.2133771548309742e+00  -8.0143234856212135e+00  -7.8103969552093266e+00  -7.6066492323008843e+00  -7.4081257944401298e+00  -7.2198094432400257e+00  -7.0465483359226946e+00  -6.8929576268429944e+00  -6.7632883117424072e+00  -6.6612602936847116e+00  -6.5898461302451370e+00  -6.5509095742824863e+00  -6.5441580825761054e+00  -9.2117125456053959e+00  -9.2045516287513287e+00  -9.1607134778613819e+00  -9.0804527874135310e+00  -8.9663078291767260e+00  -8.8219445226896589e+00  -8.6517473863901113e+00  -8.4605676858006298e+00  -8.2535386600717526e+00  -8.0359458867388511e+00  -7.8131460236620214e+00  -7.5905211480994179e+00  -7.3734507424375213e+00  -7.1672809265958684e+00  -6.9772708511418502e+00  -6.8084992817652070e+00  -6.6657201848317298e+00  -6.5531619759147315e+00  -6.4742571088966212e+00  -6.4312023462107781e+00  -6.4237632074157656e+00  -9.3438161960258750e+00  -9.3358413330532812e+00  -9.2873753834222885e+00  -9.1988523353559941e+00  -9.0732891826617443e+00  -8.9149432747900068e+00  -8.7288022433471930e+00  -8.5202667062051685e+00  -8.2949321090941375e+00  -8.0584551662722586e+00  -7.8164920829796865e+00  -7.5746878533936064e+00  -7.3386903966555828e+00  -7.1141609432280397e+00  -6.9067523162177684e+00  -6.7220297337035237e+00  -6.5653151996315389e+00  -6.4414449495381438e+00  -6.3544256185425212e+00  -6.3068873382439259e+00  -6.2987039265458540e+00  -9.4795817254264882e+00  -9.4707056584936851e+00  -9.4171890699300427e+00  -9.3197409417601360e+00  -9.1820101110128078e+00  -9.0090000443278040e+00  -8.8064186598483403e+00  -8.5802748324442017e+00  -8.3366233483454089e+00  -8.0814363366398183e+00  -7.8205769317669089e+00  -7.5598426306517448e+00  -7.3050417225377631e+00  -7.0620649525088215e+00  -6.8369145236032418e+00  -6.6356540200803567e+00  -6.4642480684866470e+00  -6.3282704528846958e+00  -6.2324613013636485e+00  -6.1800302571478349e+00  -6.1710379972287628e+00  -9.6163109550054546e+00  -9.6064304877487334e+00  -9.5473712788272262e+00  -9.4402678263872790e+00  -9.2896266494013524e+00  -9.1014124437253958e+00  -8.8822021912258506e+00  -8.6386720663555607e+00  -8.3773080664943489e+00  -8.1043001063466740e+00  -7.8255746879360730e+00  -7.5469167502602170e+00  -7.2741324382026180e+00  -7.0132063842990053e+00  -6.7704063928964766e+00  -6.5522857840247486e+00  -6.3655335268010553e+00  -6.2166299122679050e+00  -6.1112731181576070e+00  -6.0534692911966257e+00  -6.0435900405207255e+00  -9.7503531759341708e+00  -9.7393390257027370e+00  -9.6741307952080806e+00  -9.5565303986058758e+00  -9.3922403735952233e+00  -9.1884852200126854e+00  -8.9528937655561549e+00  -8.6928569572461356e+00  -8.4152217556482150e+00  -8.1262406011205304e+00  -7.8316964297939959e+00  -7.5371316538770072e+00  -7.2481224796057617e+00  -6.9705478992488743e+00  -6.7108008415546188e+00  -6.4758780637276141e+00  -6.2732721462189627e+00  -6.1105849672121533e+00  -5.9947901363456912e+00  -5.9310181216801823e+00  -5.9201507665078266e+00  -9.8768605033721570e+00  -9.8645389247629520e+00  -9.7923852164819198e+00  -9.6632679372649850e+00  -9.4845981027410140e+00  -9.2652672361230248e+00  -9.0141633882263488e+00  -8.7394017271641928e+00  -8.4480509833138235e+00  -8.1461947645142292e+00  -7.8391929437981167e+00  -7.5320465139926247e+00  -7.2298035627496002e+00  -6.9379618309504814e+00  -6.6628198828522383e+00  -6.4117045519304083e+00  -6.1929638995504090e+00  -6.0155801899841457e+00  -5.8882473084792499e+00  -5.8177231293990799e+00  -5.8057279711089249e+00  -9.9894741865983256e+00  -9.9755924736831574e+00  -9.8953815495063253e+00  -9.7534568240294472e+00  -9.5597169283944474e+00  -9.3252519590983631e+00  -9.0604026297527209e+00  -8.7739270146572039e+00  -8.4728677682192810e+00  -8.1628145321422689e+00  -7.8483530142007636e+00  -7.5335853880446644e+00  -7.2226718123766069e+00  -6.9203730656665519e+00  -6.6325695080047531e+00  -6.3666903131665329e+00  -6.1319089074697199e+00  -5.9388615917167531e+00  -5.7985698216779324e+00  -5.7202012420395247e+00  -5.7068738833429276e+00  -1.0079904232505879e+01  -1.0064061855050820e+01  -9.9741605326253904e+00  -9.8177629701530229e+00  -9.6084277303181942e+00  -9.3600714211722895e+00  -9.0845665281250945e+00  -8.7910486686268996e+00  -8.4861271365752042e+00  -8.1744714513248251e+00  -7.8594932064369472e+00  -7.5440164552316062e+00  -7.2309267651615752e+00  -6.9238285987694841e+00  -6.6277364189919696e+00  -6.3497718898034794e+00  -6.0997159180289104e+00  -5.8900554597929187e+00  -5.7349185759781465e+00  -5.6471080726823226e+00  -5.6321346430655268e+00  -1.0137331173063867e+01  -1.0118829234812262e+01  -1.0016749288173443e+01  -9.8437891246642550e+00  -9.6188579970418733e+00  -9.3592662769038437e+00  -9.0781690491737486e+00  -8.7844897693266173e+00  -8.4837928061442991e+00  -8.1793242437835776e+00  -7.8729336205662097e+00  -7.5658412445300574e+00  -7.2593194707703317e+00  -6.9553901112075707e+00  -6.6576402545534412e+00  -6.3722176060735425e+00  -6.1089258052562698e+00  -5.8819965858158545e+00  -5.7095198359022028e+00  -5.6098360745245008e+00  -5.5927127850482590e+00  -1.0147490196217735e+01  -1.0124963079877702e+01  -1.0006859996392686e+01  -9.8150563168800300e+00  -9.5759642387553487e+00  -9.3103261912979853e+00  -9.0316245818591963e+00  -8.7475042431987191e+00  -8.4616814857596729e+00  -8.1754890652350927e+00  -7.8889535686144461e+00  -7.6015397464155168e+00  -7.3127389534872771e+00  -7.0226773465416343e+00  -6.7329272180172959e+00  -6.4477187217216798e+00  -6.1756898318357241e+00  -5.9319390434685637e+00  -5.7390333247374299e+00  -5.6236599129809255e+00  -5.6035370143833019e+00  -1.0091144632204383e+01  -1.0061560418972364e+01  -9.9216954089790672e+00  -9.7097750817732642e+00  -9.4614723263287832e+00  -9.1994085531342460e+00  -8.9352495246475563e+00  -8.6738042781937157e+00  -8.4161232407782745e+00  -8.1613494653838750e+00  -7.9077225649645939e+00  -7.6531207656414821e+00  -7.3954119843205461e+00  -7.1328193753882134e+00  -6.8645191163781343e+00  -6.5917882908804994e+00  -6.3201903730731814e+00  -6.0632715907485544e+00  -5.8470048813167663e+00  -5.7098556625940624e+00  -5.6851989468624309e+00  -9.9411817405320857e+00  -9.8970555690656301e+00  -9.7283469018586324e+00  -9.5000208282779255e+00  -9.2551797544344758e+00  -9.0134803117997357e+00  -8.7813372636717286e+00  -8.5591600883259655e+00  -8.3449806816113075e+00  -8.1360065185558792e+00  -7.9292026415628447e+00  -7.7214639767890425e+00  -7.5096413904210690e+00  -7.2905687516670286e+00  -7.0612461934558794e+00  -6.8194815219560798e+00  -6.5656904427057077e+00  -6.3073937264239177e+00  -6.0685215215467903e+00  -5.9002715331324334e+00  -5.8680101338087374e+00  -9.6553565798326542e+00  -9.5781894264956549e+00  -9.3792387183871657e+00  -9.1538216179247893e+00  -8.9397089609310836e+00  -8.7449190493099760e+00  -8.5675875961959775e+00  -8.4036053168655460e+00  -8.2488747389413053e+00  -8.0997569391285982e+00  -7.9529950110507786e+00  -7.8055093359890906e+00  -7.6541657937820915e+00  -7.4955330131411584e+00  -7.3256410782678278e+00  -7.1398359799161941e+00  -6.9331537027813201e+00  -6.7028018419114144e+00  -6.4581351177051003e+00  -6.2493559269569747e+00  -6.2021642649606346e+00  -9.1485063593545188e+00  -9.0053061917415835e+00  -8.8136836989753711e+00  -8.6473922480687708e+00  -8.5118874360011478e+00  -8.3989951489746026e+00  -8.3012548037675735e+00  -8.2134478575923193e+00  -8.1319691545233521e+00  -8.0541734855032932e+00  -7.9779305874238560e+00  -7.9013213028146305e+00  -7.8223938875597732e+00  -7.7389116384062628e+00  -7.6480160867662565e+00  -7.5456935027233065e+00  -7.4258774806215353e+00  -7.2791605587662103e+00  -7.0930083057938376e+00  -6.8704864575855265e+00  -6.7913526967703479e+00  -8.0000000000000000e+00  -8.0000000000000000e+00  -8.0000000000000000e+00  -8.0000000000000000e+00  -8.0000000000000000e+00  -8.0000000000000000e+00  -8.0000000000000000e+00  -8.0000000000000000e+00  -8.0000000000000000e+00  -8.0000000000000000e+00  -8.0000000000000000e+00  -8.0000000000000000e+00  -8.0000000000000000e+00  -8.0000000000000000e+00  -8.0000000000000000e+00  -8.0000000000000000e+00  -8.0000000000000000e+00  -8.0000000000000000e+00  -8.0000000000000000e+00  -8.0000000000000000e+00  -8.0000000000000000e+00  </DataArray> 
</PointData> 
</Piece>
</UnstructuredGrid>
</VTKFile>