<?xml version="1.0"?>
<VTKFile type="UnstructuredGrid"  version="0.1"  >
<UnstructuredGrid>
<Piece  NumberOfPoints="651" NumberOfCells="1200">
<Points>
<DataArray  type="Float64"  NumberOfComponents="3"  format="ascii">0 0 0  50000 0 0  100000 0 0  150000 0 0  200000 0 0  250000 0 0  300000 0 0  350000 0 0  400000 0 0  450000 0 0  500000 0 0  550000 0 0  600000 0 0  650000 0 0  700000 0 0  750000 0 0  800000 0 0  850000 0 0  900000 0 0  950000 0 0  1000000 0 0  0 50000 0  50000 50000 0  100000 50000 0  150000 50000 0  200000 50000 0  250000 50000 0  300000 50000 0  350000 50000 0  400000 50000 0  450000 50000 0  500000 50000 0  550000 50000 0  600000 50000 0  650000 50000 0  700000 50000 0  750000 50000 0  800000 50000 0  850000 50000 0  900000 50000 0  950000 50000 0  1000000 50000 0  0 100000 0  50000 100000 0  100000 100000 0  150000 100000 0  200000 100000 0  250000 100000 0  300000 100000 0  350000 100000 0  400000 100000 0  450000 100000 0  500000 100000 0  550000 100000 0  600000 100000 0  650000 100000 0  700000 100000 0  750000 100000 0  800000 100000 0  850000 100000 0  900000 100000 0  950000 100000 0  1000000 100000 0  0 150000 0  50000 150000 0  100000 150000 0  150000 150000 0  200000 150000 0  250000 150000 0  300000 150000 0  350000 150000 0  400000 150000 0  450000 150000 0  500000 150000 0  550000 150000 0  600000 150000 0  650000 150000 0  700000 150000 0  750000 150000 0  800000 150000 0  850000 150000 0  900000 150000 0  950000 150000 0  1000000 150000 0  0 200000 0  50000 200000 0  100000 200000 0  150000 200000 0  200000 200000 0  250000 200000 0  300000 200000 0  350000 200000 0  400000 200000 0  450000 200000 0  500000 200000 0  550000 200000 0  600000 200000 0  650000 200000 0  700000 200000 0  750000 200000 0  800000 200000 0  850000 200000 0  900000 200000 0  950000 200000 0  1000000 200000 0  0 250000 0  50000 250000 0  100000 250000 0  150000 250000 0  200000 250000 0  250000 250000 0  300000 250000 0  350000 250000 0  400000 250000 0  450000 250000 0  500000 250000 0  550000 250000 0  600000 250000 0  650000 250000 0  700000 250000 0  750000 250000 0  800000 250000 0  850000 250000 0  900000 250000 0  950000 250000 0  1000000 250000 0  0 300000 0  50000 300000 0  100000 300000 0  150000 300000 0  200000 300000 0  250000 300000 0  300000 300000 0  350000 300000 0  400000 300000 0  450000 300000 0  500000 300000 0  550000 300000 0  600000 300000 0  650000 300000 0  700000 300000 0  750000 300000 0  800000 300000 0  850000 300000 0  900000 300000 0  950000 300000 0  1000000 300000 0  0 350000 0  50000 350000 0  100000 350000 0  150000 350000 0  200000 350000 0  250000 350000 0  300000 350000 0  350000 350000 0  400000 350000 0  450000 350000 0  500000 350000 0  550000 350000 0  600000 350000 0  650000 350000 0  700000 350000 0  750000 350000 0  800000 350000 0  850000 350000 0  900000 350000 0  950000 350000 0  1000000 350000 0  0 400000 0  50000 400000 0  100000 400000 0  150000 400000 0  200000 400000 0  250000 400000 0  300000 400000 0  350000 400000 0  400000 400000 0  450000 400000 0  500000 400000 0  550000 400000 0  600000 400000 0  650000 400000 0  700000 400000 0  750000 400000 0  800000 400000 0  850000 400000 0  900000 400000 0  950000 400000 0  1000000 400000 0  0 450000 0  50000 450000 0  100000 450000 0  150000 450000 0  200000 450000 0  250000 450000 0  300000 450000 0  350000 450000 0  400000 450000 0  450000 450000 0  500000 450000 0  550000 450000 0  600000 450000 0  650000 450000 0  700000 450000 0  750000 450000 0  800000 450000 0  850000 450000 0  900000 450000 0  950000 450000 0  1000000 450000 0  0 500000 0  50000 500000 0  100000 500000 0  150000 500000 0  200000 500000 0  250000 500000 0  300000 500000 0  350000 500000 0  400000 500000 0  450000 500000 0  500000 500000 0  550000 500000 0  600000 500000 0  650000 500000 0  700000 500000 0  750000 500000 0  800000 500000 0  850000 500000 0  900000 500000 0  950000 500000 0  1000000 500000 0  0 550000 0  50000 550000 0  100000 550000 0  150000 550000 0  200000 550000 0  250000 550000 0  300000 550000 0  350000 550000 0  400000 550000 0  450000 550000 0  500000 550000 0  550000 550000 0  600000 550000 0  650000 550000 0  700000 550000 0  750000 550000 0  800000 550000 0  850000 550000 0  900000 550000 0  950000 550000 0  1000000 550000 0  0 600000 0  50000 600000 0  100000 600000 0  150000 600000 0  200000 600000 0  250000 600000 0  300000 600000 0  350000 600000 0  400000 600000 0  450000 600000 0  500000 600000 0  550000 600000 0  600000 600000 0  650000 600000 0  700000 600000 0  750000 600000 0  800000 600000 0  850000 600000 0  900000 600000 0  950000 600000 0  1000000 600000 0  0 650000 0  50000 650000 0  100000 650000 0  150000 650000 0  200000 650000 0  250000 650000 0  300000 650000 0  350000 650000 0  400000 650000 0  450000 650000 0  500000 650000 0  550000 650000 0  600000 650000 0  650000 650000 0  700000 650000 0  750000 650000 0  800000 650000 0  850000 650000 0  900000 650000 0  950000 650000 0  1000000 650000 0  0 700000 0  50000 700000 0  100000 700000 0  150000 700000 0  200000 700000 0  250000 700000 0  300000 700000 0  350000 700000 0  400000 700000 0  450000 700000 0  500000 700000 0  550000 700000 0  600000 700000 0  650000 700000 0  700000 700000 0  750000 700000 0  800000 700000 0  850000 700000 0  900000 700000 0  950000 700000 0  1000000 700000 0  0 750000 0  50000 750000 0  100000 750000 0  150000 750000 0  200000 750000 0  250000 750000 0  300000 750000 0  350000 750000 0  400000 750000 0  450000 750000 0  500000 750000 0  550000 750000 0  600000 750000 0  650000 750000 0  700000 750000 0  750000 750000 0  800000 750000 0  850000 750000 0  900000 750000 0  950000 750000 0  1000000 750000 0  0 800000 0  50000 800000 0  100000 800000 0  150000 800000 0  200000 800000 0  250000 800000 0  300000 800000 0  350000 800000 0  400000 800000 0  450000 800000 0  500000 800000 0  550000 800000 0  600000 800000 0  650000 800000 0  700000 800000 0  750000 800000 0  800000 800000 0  850000 800000 0  900000 800000 0  950000 800000 0  1000000 800000 0  0 850000 0  50000 850000 0  100000 850000 0  150000 850000 0  200000 850000 0  250000 850000 0  300000 850000 0  350000 850000 0  400000 850000 0  450000 850000 0  500000 850000 0  550000 850000 0  600000 850000 0  650000 850000 0  700000 850000 0  750000 850000 0  800000 850000 0  850000 850000 0  900000 850000 0  950000 850000 0  1000000 850000 0  0 900000 0  50000 900000 0  100000 900000 0  150000 900000 0  200000 900000 0  250000 900000 0  300000 900000 0  350000 900000 0  400000 900000 0  450000 900000 0  500000 900000 0  550000 900000 0  600000 900000 0  650000 900000 0  700000 900000 0  750000 900000 0  800000 900000 0  850000 900000 0  900000 900000 0  950000 900000 0  1000000 900000 0  0 950000 0  50000 950000 0  100000 950000 0  150000 950000 0  200000 950000 0  250000 950000 0  300000 950000 0  350000 950000 0  400000 950000 0  450000 950000 0  500000 950000 0  550000 950000 0  600000 950000 0  650000 950000 0  700000 950000 0  750000 950000 0  800000 950000 0  850000 950000 0  900000 950000 0  950000 950000 0  1000000 950000 0  0 1000000 0  50000 1000000 0  100000 1000000 0  150000 1000000 0  200000 1000000 0  250000 1000000 0  300000 1000000 0  350000 1000000 0  400000 1000000 0  450000 1000000 0  500000 1000000 0  550000 1000000 0  600000 1000000 0  650000 1000000 0  700000 1000000 0  750000 1000000 0  800000 1000000 0  850000 1000000 0  900000 1000000 0  950000 1000000 0  1000000 1000000 0  0 1050000 0  50000 1050000 0  100000 1050000 0  150000 1050000 0  200000 1050000 0  250000 1050000 0  300000 1050000 0  350000 1050000 0  400000 1050000 0  450000 1050000 0  500000 1050000 0  550000 1050000 0  600000 1050000 0  650000 1050000 0  700000 1050000 0  750000 1050000 0  800000 1050000 0  850000 1050000 0  900000 1050000 0  950000 1050000 0  1000000 1050000 0  0 1100000 0  50000 1100000 0  100000 1100000 0  150000 1100000 0  200000 1100000 0  250000 1100000 0  300000 1100000 0  350000 1100000 0  400000 1100000 0  450000 1100000 0  500000 1100000 0  550000 1100000 0  600000 1100000 0  650000 1100000 0  700000 1100000 0  750000 1100000 0  800000 1100000 0  850000 1100000 0  900000 1100000 0  950000 1100000 0  1000000 1100000 0  0 1150000 0  50000 1150000 0  100000 1150000 0  150000 1150000 0  200000 1150000 0  250000 1150000 0  300000 1150000 0  350000 1150000 0  400000 1150000 0  450000 1150000 0  500000 1150000 0  550000 1150000 0  600000 1150000 0  650000 1150000 0  700000 1150000 0  750000 1150000 0  800000 1150000 0  850000 1150000 0  900000 1150000 0  950000 1150000 0  1000000 1150000 0  0 1200000 0  50000 1200000 0  100000 1200000 0  150000 1200000 0  200000 1200000 0  250000 1200000 0  300000 1200000 0  350000 1200000 0  400000 1200000 0  450000 1200000 0  500000 1200000 0  550000 1200000 0  600000 1200000 0  650000 1200000 0  700000 1200000 0  750000 1200000 0  800000 1200000 0  850000 1200000 0  900000 1200000 0  950000 1200000 0  1000000 1200000 0  0 1250000 0  50000 1250000 0  100000 1250000 0  150000 1250000 0  200000 1250000 0  250000 1250000 0  300000 1250000 0  350000 1250000 0  400000 1250000 0  450000 1250000 0  500000 1250000 0  550000 1250000 0  600000 1250000 0  650000 1250000 0  700000 1250000 0  750000 1250000 0  800000 1250000 0  850000 1250000 0  900000 1250000 0  950000 1250000 0  1000000 1250000 0  0 1300000 0  50000 1300000 0  100000 1300000 0  150000 1300000 0  200000 1300000 0  250000 1300000 0  300000 1300000 0  350000 1300000 0  400000 1300000 0  450000 1300000 0  500000 1300000 0  550000 1300000 0  600000 1300000 0  650000 1300000 0  700000 1300000 0  750000 1300000 0  800000 1300000 0  850000 1300000 0  900000 1300000 0  950000 1300000 0  1000000 1300000 0  0 1350000 0  50000 1350000 0  100000 1350000 0  150000 1350000 0  200000 1350000 0  250000 1350000 0  300000 1350000 0  350000 1350000 0  400000 1350000 0  450000 1350000 0  500000 1350000 0  550000 1350000 0  600000 1350000 0  650000 1350000 0  700000 135
[...]
<PointData  Scalars="f_5981"> 
<DataArray  type="Float64"  Name="f_5981"  format="ascii">-8.2012383806357168e+00  -8.1984306922188459e+00  -8.1845278373014914e+00  -8.1594888420092033e+00  -8.1239658867133784e+00  -8.0789062621956731e+00  -8.0255084707256810e+00  -7.9651881666366720e+00  -7.8995402980434477e+00  -7.8302967047357086e+00  -7.7592802371697811e+00  -7.6883566398412748e+00  -7.6193854502608067e+00  -7.5541711775171914e+00  -7.4944160729943734e+00  -7.4416759899526923e+00  -7.3973215272328456e+00  -7.3625088419691025e+00  -7.3381671632479897e+00  -7.3249535543935034e+00  -7.3221078202197862e+00  -8.2039050289033231e+00  -8.2011610665385835e+00  -8.1870582172785440e+00  -8.1618538194873516e+00  -8.1261473950342005e+00  -8.0808683964669417e+00  -8.0272109135056375e+00  -7.9665927340052889e+00  -7.9006142687096448e+00  -7.8310146792829087e+00  -7.7596252396033183e+00  -7.6883207288269064e+00  -7.6189699342178807e+00  -7.5533864403001614e+00  -7.4932809223505217e+00  -7.4402161738749761e+00  -7.3955659369750082e+00  -7.3604772899520707e+00  -7.3358291493085659e+00  -7.3221465251626574e+00  -7.3193012018984032e+00  -8.2169643499240301e+00  -8.2144158532607054e+00  -8.1999903123055571e+00  -8.1740254303172630e+00  -8.1372399639354835e+00  -8.0906110310270751e+00  -8.0353687816767518e+00  -7.9729691517306449e+00  -7.9050557543059572e+00  -7.8334155272022734e+00  -7.7599307009252918e+00  -7.6865286420760528e+00  -7.6151308140667746e+00  -7.5476020558817218e+00  -7.4857014149048560e+00  -7.4310358532510321e+00  -7.3850182788237335e+00  -7.3488313704600099e+00  -7.3233971986472381e+00  -7.3093389365543029e+00  -7.3067944526312889e+00  -8.2402482824786123e+00  -8.2377310092543841e+00  -8.2227671483711955e+00  -8.1955690644086090e+00  -8.1569288097192452e+00  -8.1079139377934659e+00  -8.0498367461057470e+00  -7.9842350630403747e+00  -7.9128385119967284e+00  -7.8375249742694368e+00  -7.7602715228109913e+00  -7.6831024160963155e+00  -7.6080359252732386e+00  -7.5370314729616048e+00  -7.4719385529095961e+00  -7.4144491028618482e+00  -7.3660554124137594e+00  -7.3280158606960644e+00  -7.3013272491221279e+00  -7.2866729046599108e+00  -7.2841283180753296e+00  -8.2733864507326782e+00  -8.2707988937920973e+00  -8.2549854643308436e+00  -8.2260499002823408e+00  -8.1848146800027930e+00  -8.1324393188105653e+00  -8.0703471558699409e+00  -8.0001957331357989e+00  -7.9238416727210801e+00  -7.8432962692978361e+00  -7.7606747139610421e+00  -7.6781417300750396e+00  -7.5978557191655813e+00  -7.5219131604545915e+00  -7.4522949551725084e+00  -7.3908165735524767e+00  -7.3390840419841163e+00  -7.2984568963903715e+00  -7.2700117019296924e+00  -7.2544598333084904e+00  -7.2517733503138295e+00  -8.3161649822915731e+00  -8.3134312617453325e+00  -8.2964445633417725e+00  -8.2652362942962618e+00  -8.2206595763209105e+00  -8.1639685116797924e+00  -8.0967166155176855e+00  -8.0207119247947976e+00  -7.9379750122717763e+00  -7.8506906655272166e+00  -7.7611538092036039e+00  -7.6717117930056498e+00  -7.5847050643926650e+00  -7.5024080224439009e+00  -7.4269717841431362e+00  -7.3603706334033561e+00  -7.3043537011983641e+00  -7.2604014587427530e+00  -7.2296768593950542e+00  -7.2129177518252163e+00  -7.2100126698665514e+00  -8.3685151747735933e+00  -8.3655708836007001e+00  -8.3470902635357227e+00  -8.3130600990633763e+00  -8.2643811494261410e+00  -8.2024155942712582e+00  -8.1288669234824713e+00  -8.0457216439735806e+00  -7.9551983178845145e+00  -7.8596929754054621e+00  -7.7617200131810735e+00  -7.6638499273582719e+00  -7.5686455536763955e+00  -7.4785984339388474e+00  -7.3960668843311943e+00  -7.3232172867335681e+00  -7.2619696452214439e+00  -7.2139459787719584e+00  -7.1804095536292980e+00  -7.1621379257652382e+00  -7.1589567757243087e+00  -8.4304836522744520e+00  -8.4272692390787380e+00  -8.4069770247477393e+00  -8.3695672196963500e+00  -8.3160102142038994e+00  -8.2477972449225181e+00  -8.1668054895289774e+00  -8.0752284954298581e+00  -7.9755158965055939e+00  -7.8703112503406878e+00  -7.7623865923107260e+00  -7.6545745367899745e+00  -7.5496991857263636e+00  -7.4505071310128059e+00  -7.3595998275919570e+00  -7.2793685578000229e+00  -7.2119326890714301e+00  -7.1590793576704348e+00  -7.1221917297856319e+00  -7.1021051913378326e+00  -7.0985962043317512e+00  -8.5021992670140438e+00  -8.4986567835433480e+00  -8.4762345323377151e+00  -8.4348780662790492e+00  -8.3756505031639037e+00  -8.3001974869225617e+00  -8.2105974649823441e+00  -8.1092815941732344e+00  -7.9989640449894228e+00  -7.8825715449799993e+00  -7.7631707426882528e+00  -7.6438939434978419e+00  -7.5278640673755568e+00  -7.4181196717161288e+00  -7.3175409048155196e+00  -7.2287772860206481e+00  -7.1541778216928273e+00  -7.0957214870754344e+00  -7.0549346198568941e+00  -7.0327298877930708e+00  -7.0288429121797016e+00  -8.5838376913893217e+00  -8.5799089813802478e+00  -8.5550336655316617e+00  -8.5091515099442123e+00  -8.4434419804492737e+00  -8.3597334823247174e+00  -8.2603366607529320e+00  -8.1479531977153581e+00  -8.0255962234708473e+00  -7.8965110197718422e+00  -7.7640947319777842e+00  -7.6318154508553411e+00  -7.5031310509640194e+00  -7.3814080437385678e+00  -7.2698407528655888e+00  -7.1713713115749451e+00  -7.0886108494261251e+00  -7.0237599315615338e+00  -6.9785141367586103e+00  -6.9538835965525161e+00  -6.9495685750316349e+00  -8.6755823808624086e+00  -8.6712079251377805e+00  -8.6435489118405080e+00  -8.5925472924004076e+00  -8.5195237605042493e+00  -8.4265207358340923e+00  -8.3161152037337018e+00  -8.1913146876700598e+00  -8.0554667218903315e+00  -7.9121701356669281e+00  -7.7651869827181450e+00  -7.6183552157672167e+00  -7.4755018531588124e+00  -7.3403560629105060e+00  -7.2164616668564836e+00  -7.1070889939955570e+00  -7.0151462518046142e+00  -6.9430885406003942e+00  -6.8928096490329809e+00  -6.8654386808594321e+00  -6.8606449427755152e+00  -8.7775801355805392e+00  -8.7726982345079829e+00  -8.7419150914372157e+00  -8.6851835524998577e+00  -8.6039929909659154e+00  -8.5006347582668198e+00  -8.3779899350269424e+00  -8.2394097029621935e+00  -8.0886122156867195e+00  -7.9295838045859561e+00  -7.7664833747803055e+00  -7.6035496113248229e+00  -7.4450097575544039e+00  -7.2949881418710749e+00  -7.1574127413700914e+00  -7.0359188193255484e+00  -6.9337494343419390e+00  -6.8536509918194808e+00  -6.7977482246832857e+00  -6.7673132302752839e+00  -6.7619891274879160e+00  -8.8898892469549704e+00  -8.8844353840836963e+00  -8.8501763014150097e+00  -8.7870867389509808e+00  -8.6968565704186354e+00  -8.5820661612580107e+00  -8.4459430090784284e+00  -8.2922225352303389e+00  -8.1250300089422733e+00  -7.9487709765055445e+00  -7.7680289177681567e+00  -7.5874688840402351e+00  -7.4117443340316225e+00  -7.2454034497033071e+00  -7.0927913726703107e+00  -6.9579459842292470e+00  -6.8444863406225593e+00  -6.7554919293147648e+00  -6.6933565120276732e+00  -6.6595234170118545e+00  -6.6536161206275093e+00  -9.0124179690852309e+00  -9.0063242474163285e+00  -8.9682247252098790e+00  -8.8981311619841605e+00  -8.7979726143065982e+00  -8.6706660484930733e+00  -8.5198338544618988e+00  -8.3496395102692613e+00  -8.1646514177350067e+00  -7.9697219307734946e+00  -7.7698799058389039e+00  -7.5702340485979231e+00  -7.3758818892508051e+00  -7.1918178365524170e+00  -7.0228339795353154e+00  -6.8734090531122272e+00  -6.7475834684655247e+00  -6.6488184446285485e+00  -6.5798226565123530e+00  -6.5422455256142165e+00  -6.5357008578978881e+00  -9.1448507751876082e+00  -9.1380453106119024e+00  -9.0957265645917165e+00  -9.0179650813682066e+00  -8.9069782496492618e+00  -8.7660782169144866e+00  -8.5993392796636989e+00  -8.4114007194552993e+00  -8.2073084637603255e+00  -7.9923823809432450e+00  -7.7721066590328372e+00  -7.5520381098128171e+00  -7.3377236494816760e+00  -7.1346162863218918e+00  -6.9479792344511466e+00  -6.7827702061631356e+00  -6.6435017185990493e+00  -6.5340750105527006e+00  -6.4575710061986502e+00  -6.4158902092920531e+00  -6.4086523717881914e+00  -9.2865595255256341e+00  -9.2789656338572790e+00  -9.2320318541935116e+00  -9.1459196366871218e+00  -9.0231996965075751e+00  -8.8676540890061784e+00  -8.6838779967140578e+00  -8.4770390705221157e+00  -8.2526917838748801e+00  -8.0166333687790488e+00  -7.7747969520521680e+00  -7.5331728366916462e+00  -7.2977439634591459e+00  -7.0744191015137545e+00  -6.8689476692619458e+00  -6.6868032456751987e+00  -6.5330281586975731e+00  -6.4120355702226020e+00  -6.3273528436508029e+00  -6.2811918973830378e+00  -6.2732029026842966e+00  -9.4364962485513839e+00  -9.4280311652260060e+00  -9.3760642540087051e+00  -9.2808960816086223e+00  -9.1455396985833168e+00  -8.9743455037860542e+00  -8.7725152456834845e+00  -8.5458032594063997e+00  -8.3002974686410340e+00  -8.0422658384872339e+00  -7.7780602149461995e+00  -7.5140623787998875e+00  -7.2566510210985600e+00  -7.0121654471589396e+00  -6.7868421888240063e+00  -6.5867043969400090e+00  -6.4173907280013536e+00  -6.2839173442879073e+00  -6.1903570557871426e+00  -6.1393167788105023e+00  -6.1305152981546254e+00  -9.5930636441742276e+00  -9.5836363427008546e+00  -9.5261859577091617e+00  -9.4212255784494552e+00  -9.2723361620012223e+00  -9.0845695662574641e+00  -8.8638426878986500e+00  -8.6165611161074391e+00  -8.3493605885413462e+00  -8.0689488323046508e+00  -7.7820325363445502e+00  -7.4953048832455096e+00  -7.2154625237044367e+00  -6.9492180956916654e+00  -6.7032746660777072e+00  -6.4842320026794820e+00  -6.2984022090472740e+00  -6.1515221737803305e+00  -6.0483456455830673e+00  -5.9919935175040946e+00  -5.9823127043708428e+00  -9.7539584998918993e+00  -9.7434658715818987e+00  -9.6800313560862303e+00  -9.5644940198491355e+00  -9.4011842811549950e+00  -9.1960388422110633e+00  -8.9558286252704224e+00  -8.6876802466888456e+00  -8.3987737888007956e+00  -8.0961906088129592e+00  -7.7868823704599901e+00  -7.4777226991503145e+00  -7.1755980352956739e+00  -6.8874928243999340e+00  -6.6205241154511638e+00  -6.3818823837659933e+00  -6.1786415826434018e+00  -6.0174131199982908e+00  -5.9038205586686905e+00  -5.8416720216613811e+00  -5.8310356321605026e+00  -9.9159816522278650e+00  -9.9043017616442608e+00  -9.8343005661376548e+00  -9.7073215619886746e+00  -9.5287124004143049e+00  -9.3055496435177272e+00  -9.0456345681404180e+00  -8.7568847373914895e+00  -8.4469911474509338e+00  -8.1232929688292455e+00  -7.7928165819150470e+00  -7.4624203201253758e+00  -7.1389877039058476e+00  -6.8296141549904821e+00  -6.5417313433845452e+00  -6.2831101874485782e+00  -6.0616833523013103e+00  -5.8851370701993986e+00  -5.7602309501259708e+00  -5.6917175927578532e+00  -5.6800333382874220e+00  -1.0074805307807431e+01  -1.0061785393698095e+01  -9.9844994022592459e+00  -9.8450820572981446e+00  -9.6502994004234868e+00  -9.4087218080069572e+00  -9.1293975304811816e+00  -8.8210912589599122e+00  -8.4919215294802513e+00  -8.1493011896277903e+00  -7.8000859629006412e+00  -7.4508462237783055e+00  -7.1081924894771866e+00  -6.7790945833413261e+00  -6.4711322239169871e+00  -6.1926018523926594e+00  -5.9523888022044824e+00  -5.7595091195276007e+00  -5.6222347522760137e+00  -5.5466514206950963e+00  -5.5337998406440603e+00  -1.0224683243461856e+01  -1.0210117986201137e+01  -1.0124603858637688e+01  -9.9715401622836506e+00  -9.7597189408002905e+00  -9.4996871226150059e+00  -9.2019856722035964e+00  -8.8762374836539433e+00  -8.5308235166664890e+00  -8.1729559577785320e+00  -7.8089885008417870e+00  -7.4448492143765916e+00  -7.0865221123320978e+00  -6.7405246646904420e+00  -6.4143244031094797e+00  -6.1166088669591767e+00  -5.8572775309540885e+00  -5.6469830830449510e+00  -5.4960372360892755e+00  -5.4124552760643985e+00  -5.3982712634499661e+00  -1.0358079221725360e+01  -1.0341669936798713e+01  -1.0246610666035703e+01  -1.0078371824163948e+01  -9.8486952635995326e+00  -9.5707345620612028e+00  -9.2567525605421324e+00  -8.9171338007624481e+00  -8.5602277472470423e+00  -8.1926604475163050e+00  -7.8198673490536299e+00  -7.4467105519957721e+00  -7.0781210412265780e+00  -6.7197422425665465e+00  -6.3785455625996184e+00  -6.0633396146518539e+00  -5.7850022867241755e+00  -5.5561473556350478e+00  -5.3898463583532434e+00  -5.2969717336441322e+00  -5.2812136376633720e+00  -1.0465169025557971e+01  -1.0446442184443283e+01  -1.0339902713605962e+01  -1.0154515601398048e+01  -9.9063624882520571e+00  -9.6119478937628173e+00  -9.2853500845398766e+00  -8.9374004866594756e+00  -8.5759341675766354e+00  -8.2064858543495465e+00  -7.8330986900332178e+00  -7.4591192421973993e+00  -7.0879671578930541e+00  -6.7239147093430542e+00  -6.3729064134548086e+00  -6.0433860138627384e+00  -5.7469514618877344e+00  -5.4984107664924098e+00  -5.3145190290902375e+00  -5.2104587564508682e+00  -5.1927554062030321e+00  -1.0533131796980049e+01  -1.0511260843032604e+01  -1.0390292614280172e+01  -1.0185281023950102e+01  -9.9186521360137245e+00  -9.6109336262935674e+00  -9.2777234845937677e+00  -8.9296007744057384e+00  -8.5731611693748686e+00  -8.2122515190246883e+00  -7.8490629269462371e+00  -7.4850405729537046e+00  -7.1216914725435139e+00  -6.7614113995940848e+00  -6.4084523269926645e+00  -6.0701029344008353e+00  -5.7579878970494489e+00  -5.4889839981391964e+00  -5.2845441248853273e+00  -5.1664168053881134e+00  -5.1461723245906281e+00  -1.0545065100214615e+01  -1.0518434252234812e+01  -1.0378481016242350e+01  -1.0151142113110442e+01  -9.8677397068886652e+00  -9.5528695774800596e+00  -9.2225166465611643e+00  -8.8857432942952599e+00  -8.5469538431672891e+00  -8.2077267390257003e+00  -7.8680920159150434e+00  -7.5274137401328538e+00  -7.1850875924625797e+00  -6.8412619184413170e+00  -6.4977997621086985e+00  -6.1597159173987599e+00  -5.8372526158150988e+00  -5.5483144700186848e+00  -5.3196636332924161e+00  -5.1829458502299497e+00  -5.1591549939520069e+00  -1.0478176754523263e+01  -1.0443196684067759e+01  -1.0277456745486081e+01  -1.0026282262381033e+01  -9.7319751753187429e+00  -9.4213576784364026e+00  -9.1082598681246214e+00  -8.7983816453884600e+00  -8.4929668000412768e+00  -8.1909980889350518e+00  -7.8903874509684924e+00  -7.5886185161663935e+00  -7.2831626813992143e+00  -6.9719123756771912e+00  -6.6538897749646724e+00  -6.3306080090525505e+00  -6.0086632969363940e+00  -5.7041196140393904e+00  -5.4477793909321397e+00  -5.2852563483644390e+00  -5.2561037703106246e+00  -1.0300345571001616e+01  -1.0248149998957933e+01  -1.0048229833306694e+01  -9.7776191021554819e+00  -9.4874282521779936e+00  -9.2009637035162299e+00  -8.9258298052839482e+00  -8.6625107116849325e+00  -8.4086721127352977e+00  -8.1610027242555550e+00  -7.9159041346766221e+00  -7.6696949045506955e+00  -7.4186412676943441e+00  -7.1589890377304677e+00  -6.8871807333436106e+00  -6.6006160324985501e+00  -6.2997867125215663e+00  -5.9936110637307367e+00  -5.7104712129722506e+00  -5.5110856189693322e+00  -5.4729363552207273e+00  -9.9615300736670616e+00  -9.8701945263716588e+00  -9.6344368869709722e+00  -9.3672826459157630e+00  -9.1135242209760374e+00  -8.8826714520155807e+00  -8.6725141927104090e+00  -8.4781801976781601e+00  -8.2948115763671808e+00  -8.1180944406131612e+00  -7.9441679982418076e+00  -7.7693816672049021e+00  -7.5900201300703527e+00  -7.4020153835916078e+00  -7.2006604705814485e+00  -6.9804366934446440e+00  -6.7354571048262954e+00  -6.4624099074488157e+00  -6.1723917927226868e+00  -5.9249540731163117e+00  -5.8691303144643019e+00  -9.3608719428869271e+00  -9.1912673317843296e+00  -8.9641933535474010e+00  -8.7671183259978136e+00  -8.6065321154830432e+00  -8.4727493740488065e+00  -8.3569259606750759e+00  -8.2528753776521349e+00  -8.1563241211273247e+00  -8.0641368972208234e+00  -7.9737889284960550e+00  -7.8830056727359858e+00  -7.7894738792769669e+00  -7.6905423460052216e+00  -7.5828225261881252e+00  -7.4615558433337270e+00  -7.3195494192739607e+00  -7.1456485168523649e+00  -6.9249929176561231e+00  -6.6612315816689431e+00  -6.5675535447899547e+00  -8.0000000000000000e+00  -8.0000000000000000e+00  -8.0000000000000000e+00  -8.0000000000000000e+00  -8.0000000000000000e+00  -8.0000000000000000e+00  -8.0000000000000000e+00  -8.0000000000000000e+00  -8.0000000000000000e+00  -8.0000000000000000e+00  -8.0000000000000000e+00  -8.0000000000000000e+00  -8.0000000000000000e+00  -8.0000000000000000e+00  -8.0000000000000000e+00  -8.0000000000000000e+00  -8.0000000000000000e+00  -8.0000000000000000e+00  -8.0000000000000000e+00  -8.0000000000000000e+00  -8.0000000000000000e+00  </DataArray> 
</PointData> 
</Piece>
</UnstructuredGrid>
</VTKFile>