<?xml version="1.0"?>
<VTKFile type="UnstructuredGrid"  version="0.1"  >
<UnstructuredGrid>
<Piece  NumberOfPoints="651" NumberOfCells="1200">
<Points>
<DataArray  type="Float64"  NumberOfComponents="3"  format="ascii">0 0 0  50000 0 0  100000 0 0  150000 0 0  200000 0 0  250000 0 0  300000 0 0  350000 0 0  400000 0 0  450000 0 0  500000 0 0  550000 0 0  600000 0 0  650000 0 0  700000 0 0  750000 0 0  800000 0 0  850000 0 0  900000 0 0  950000 0 0  1000000 0 0  0 50000 0  50000 50000 0  100000 50000 0  150000 50000 0  200000 50000 0  250000 50000 0  300000 50000 0  350000 50000 0  400000 50000 0  450000 50000 0  500000 50000 0  550000 50000 0  600000 50000 0  650000 50000 0  700000 50000 0  750000 50000 0  800000 50000 0  850000 50000 0  900000 50000 0  950000 50000 0  1000000 50000 0  0 100000 0  50000 100000 0  100000 100000 0  150000 100000 0  200000 100000 0  250000 100000 0  300000 100000 0  350000 100000 0  400000 100000 0  450000 100000 0  500000 100000 0  550000 100000 0  600000 100000 0  650000 100000 0  700000 100000 0  750000 100000 0  800000 100000 0  850000 100000 0  900000 100000 0  950000 100000 0  1000000 100000 0  0 150000 0  50000 150000 0  100000 150000 0  150000 150000 0  200000 150000 0  250000 150000 0  300000 150000 0  350000 150000 0  400000 150000 0  450000 150000 0  500000 150000 0  550000 150000 0  600000 150000 0  650000 150000 0  700000 150000 0  750000 150000 0  800000 150000 0  850000 150000 0  900000 150000 0  950000 150000 0  1000000 150000 0  0 200000 0  50000 200000 0  100000 200000 0  150000 200000 0  200000 200000 0  250000 200000 0  300000 200000 0  350000 200000 0  400000 200000 0  450000 200000 0  500000 200000 0  550000 200000 0  600000 200000 0  650000 200000 0  700000 200000 0  750000 200000 0  800000 200000 0  850000 200000 0  900000 200000 0  950000 200000 0  1000000 200000 0  0 250000 0  50000 250000 0  100000 250000 0  150000 250000 0  200000 250000 0  250000 250000 0  300000 250000 0  350000 250000 0  400000 250000 0  450000 250000 0  500000 250000 0  550000 250000 0  600000 250000 0  650000 250000 0  700000 250000 0  750000 250000 0  800000 250000 0  850000 250000 0  900000 250000 0  950000 250000 0  1000000 250000 0  0 300000 0  50000 300000 0  100000 300000 0  150000 300000 0  200000 300000 0  250000 300000 0  300000 300000 0  350000 300000 0  400000 300000 0  450000 300000 0  500000 300000 0  550000 300000 0  600000 300000 0  650000 300000 0  700000 300000 0  750000 300000 0  800000 300000 0  850000 300000 0  900000 300000 0  950000 300000 0  1000000 300000 0  0 350000 0  50000 350000 0  100000 350000 0  150000 350000 0  200000 350000 0  250000 350000 0  300000 350000 0  350000 350000 0  400000 350000 0  450000 350000 0  500000 350000 0  550000 350000 0  600000 350000 0  650000 350000 0  700000 350000 0  750000 350000 0  800000 350000 0  850000 350000 0  900000 350000 0  950000 350000 0  1000000 350000 0  0 400000 0  50000 400000 0  100000 400000 0  150000 400000 0  200000 400000 0  250000 400000 0  300000 400000 0  350000 400000 0  400000 400000 0  450000 400000 0  500000 400000 0  550000 400000 0  600000 400000 0  650000 400000 0  700000 400000 0  750000 400000 0  800000 400000 0  850000 400000 0  900000 400000 0  950000 400000 0  1000000 400000 0  0 450000 0  50000 450000 0  100000 450000 0  150000 450000 0  200000 450000 0  250000 450000 0  300000 450000 0  350000 450000 0  400000 450000 0  450000 450000 0  500000 450000 0  550000 450000 0  600000 450000 0  650000 450000 0  700000 450000 0  750000 450000 0  800000 450000 0  850000 450000 0  900000 450000 0  950000 450000 0  1000000 450000 0  0 500000 0  50000 500000 0  100000 500000 0  150000 500000 0  200000 500000 0  250000 500000 0  300000 500000 0  350000 500000 0  400000 500000 0  450000 500000 0  500000 500000 0  550000 500000 0  600000 500000 0  650000 500000 0  700000 500000 0  750000 500000 0  800000 500000 0  850000 500000 0  900000 500000 0  950000 500000 0  1000000 500000 0  0 550000 0  50000 550000 0  100000 550000 0  150000 550000 0  200000 550000 0  250000 550000 0  300000 550000 0  350000 550000 0  400000 550000 0  450000 550000 0  500000 550000 0  550000 550000 0  600000 550000 0  650000 550000 0  700000 550000 0  750000 550000 0  800000 550000 0  850000 550000 0  900000 550000 0  950000 550000 0  1000000 550000 0  0 600000 0  50000 600000 0  100000 600000 0  150000 600000 0  200000 600000 0  250000 600000 0  300000 600000 0  350000 600000 0  400000 600000 0  450000 600000 0  500000 600000 0  550000 600000 0  600000 600000 0  650000 600000 0  700000 600000 0  750000 600000 0  800000 600000 0  850000 600000 0  900000 600000 0  950000 600000 0  1000000 600000 0  0 650000 0  50000 650000 0  100000 650000 0  150000 650000 0  200000 650000 0  250000 650000 0  300000 650000 0  350000 650000 0  400000 650000 0  450000 650000 0  500000 650000 0  550000 650000 0  600000 650000 0  650000 650000 0  700000 650000 0  750000 650000 0  800000 650000 0  850000 650000 0  900000 650000 0  950000 650000 0  1000000 650000 0  0 700000 0  50000 700000 0  100000 700000 0  150000 700000 0  200000 700000 0  250000 700000 0  300000 700000 0  350000 700000 0  400000 700000 0  450000 700000 0  500000 700000 0  550000 700000 0  600000 700000 0  650000 700000 0  700000 700000 0  750000 700000 0  800000 700000 0  850000 700000 0  900000 700000 0  950000 700000 0  1000000 700000 0  0 750000 0  50000 750000 0  100000 750000 0  150000 750000 0  200000 750000 0  250000 750000 0  300000 750000 0  350000 750000 0  400000 750000 0  450000 750000 0  500000 750000 0  550000 750000 0  600000 750000 0  650000 750000 0  700000 750000 0  750000 750000 0  800000 750000 0  850000 750000 0  900000 750000 0  950000 750000 0  1000000 750000 0  0 800000 0  50000 800000 0  100000 800000 0  150000 800000 0  200000 800000 0  250000 800000 0  300000 800000 0  350000 800000 0  400000 800000 0  450000 800000 0  500000 800000 0  550000 800000 0  600000 800000 0  650000 800000 0  700000 800000 0  750000 800000 0  800000 800000 0  850000 800000 0  900000 800000 0  950000 800000 0  1000000 800000 0  0 850000 0  50000 850000 0  100000 850000 0  150000 850000 0  200000 850000 0  250000 850000 0  300000 850000 0  350000 850000 0  400000 850000 0  450000 850000 0  500000 850000 0  550000 850000 0  600000 850000 0  650000 850000 0  700000 850000 0  750000 850000 0  800000 850000 0  850000 850000 0  900000 850000 0  950000 850000 0  1000000 850000 0  0 900000 0  50000 900000 0  100000 900000 0  150000 900000 0  200000 900000 0  250000 900000 0  300000 900000 0  350000 900000 0  400000 900000 0  450000 900000 0  500000 900000 0  550000 900000 0  600000 900000 0  650000 900000 0  700000 900000 0  750000 900000 0  800000 900000 0  850000 900000 0  900000 900000 0  950000 900000 0  1000000 900000 0  0 950000 0  50000 950000 0  100000 950000 0  150000 950000 0  200000 950000 0  250000 950000 0  300000 950000 0  350000 950000 0  400000 950000 0  450000 950000 0  500000 950000 0  550000 950000 0  600000 950000 0  650000 950000 0  700000 950000 0  750000 950000 0  800000 950000 0  850000 950000 0  900000 950000 0  950000 950000 0  1000000 950000 0  0 1000000 0  50000 1000000 0  100000 1000000 0  150000 1000000 0  200000 1000000 0  250000 1000000 0  300000 1000000 0  350000 1000000 0  400000 1000000 0  450000 1000000 0  500000 1000000 0  550000 1000000 0  600000 1000000 0  650000 1000000 0  700000 1000000 0  750000 1000000 0  800000 1000000 0  850000 1000000 0  900000 1000000 0  950000 1000000 0  1000000 1000000 0  0 1050000 0  50000 1050000 0  100000 1050000 0  150000 1050000 0  200000 1050000 0  250000 1050000 0  300000 1050000 0  350000 1050000 0  400000 1050000 0  450000 1050000 0  500000 1050000 0  550000 1050000 0  600000 1050000 0  650000 1050000 0  700000 1050000 0  750000 1050000 0  800000 1050000 0  850000 1050000 0  900000 1050000 0  950000 1050000 0  1000000 1050000 0  0 1100000 0  50000 1100000 0  100000 1100000 0  150000 1100000 0  200000 1100000 0  250000 1100000 0  300000 1100000 0  350000 1100000 0  400000 1100000 0  450000 1100000 0  500000 1100000 0  550000 1100000 0  600000 1100000 0  650000 1100000 0  700000 1100000 0  750000 1100000 0  800000 1100000 0  850000 1100000 0  900000 1100000 0  950000 1100000 0  1000000 1100000 0  0 1150000 0  50000 1150000 0  100000 1150000 0  150000 1150000 0  200000 1150000 0  250000 1150000 0  300000 1150000 0  350000 1150000 0  400000 1150000 0  450000 1150000 0  500000 1150000 0  550000 1150000 0  600000 1150000 0  650000 1150000 0  700000 1150000 0  750000 1150000 0  800000 1150000 0  850000 1150000 0  900000 1150000 0  950000 1150000 0  1000000 1150000 0  0 1200000 0  50000 1200000 0  100000 1200000 0  150000 1200000 0  200000 1200000 0  250000 1200000 0  300000 1200000 0  350000 1200000 0  400000 1200000 0  450000 1200000 0  500000 1200000 0  550000 1200000 0  600000 1200000 0  650000 1200000 0  700000 1200000 0  750000 1200000 0  800000 1200000 0  850000 1200000 0  900000 1200000 0  950000 1200000 0  1000000 1200000 0  0 1250000 0  50000 1250000 0  100000 1250000 0  150000 1250000 0  200000 1250000 0  250000 1250000 0  300000 1250000 0  350000 1250000 0  400000 1250000 0  450000 1250000 0  500000 1250000 0  550000 1250000 0  600000 1250000 0  650000 1250000 0  700000 1250000 0  750000 1250000 0  800000 1250000 0  850000 1250000 0  900000 1250000 0  950000 1250000 0  1000000 1250000 0  0 1300000 0  50000 1300000 0  100000 1300000 0  150000 1300000 0  200000 1300000 0  250000 1300000 0  300000 1300000 0  350000 1300000 0  400000 1300000 0  450000 1300000 0  500000 1300000 0  550000 1300000 0  600000 1300000 0  650000 1300000 0  700000 1300000 0  750000 1300000 0  800000 1300000 0  850000 1300000 0  900000 1300000 0  950000 1300000 0  1000000 1300000 0  0 1350000 0  50000 1350000 0  100000 1350000 0  150000 1350000 0  200000 1350000 0  250000 1350000 0  300000 1350000 0  350000 1350000 0  400000 1350000 0  450000 1350000 0  500000 1350000 0  550000 1350000 0  600000 1350000 0  650000 1350000 0  700000 135
[...]
<PointData  Scalars="f_5981"> 
<DataArray  type="Float64"  Name="f_5981"  format="ascii">-8.1742737611740992e+00  -8.1718400778175173e+00  -8.1598061303123366e+00  -8.1381361707889841e+00  -8.1073937617049445e+00  -8.0683980865221780e+00  -8.0221859632624977e+00  -7.9699823418908071e+00  -7.9131675085284705e+00  -7.8532403528648986e+00  -7.7917786201854931e+00  -7.7303972248852766e+00  -7.6707057099191154e+00  -7.6142659479689199e+00  -7.5625512220611695e+00  -7.5169079820595801e+00  -7.4785221756533540e+00  -7.4483939397926395e+00  -7.4273267132777052e+00  -7.4158880401395990e+00  -7.4134212053033304e+00  -8.1765826703190161e+00  -8.1742042386951130e+00  -8.1619976143377642e+00  -8.1401845693848500e+00  -8.1092832467540106e+00  -8.0700974550931033e+00  -8.0236602283645304e+00  -7.9711983856316166e+00  -7.9140969588214318e+00  -7.8538611911709442e+00  -7.7920761345723015e+00  -7.7303645389541682e+00  -7.6703439687364323e+00  -7.6135841667022630e+00  -7.5615657213454668e+00  -7.5156411033598367e+00  -7.4769989973607247e+00  -7.4466317189682476e+00  -7.4252992915576108e+00  -7.4134553342198597e+00  -7.4109886902303019e+00  -8.1878835624982251e+00  -8.1856737626396967e+00  -8.1731877026107451e+00  -8.1507166746247037e+00  -8.1188817371596329e+00  -8.0785278810228487e+00  -8.0307193306894984e+00  -7.9767159178054401e+00  -7.9179400648336360e+00  -7.8559383647433698e+00  -7.7923399721001934e+00  -7.7288131510760865e+00  -7.6670210568923274e+00  -7.6085777919266349e+00  -7.5550058081116145e+00  -7.5076957988532440e+00  -7.4678703368007895e+00  -7.4365525289130829e+00  -7.4145396944019701e+00  -7.4023702542531353e+00  -7.4001628980378591e+00  -8.2080319293342878e+00  -8.2058487218724512e+00  -8.1928962509845267e+00  -8.1693578528008501e+00  -8.1359179243507462e+00  -8.0934995793733702e+00  -8.0432380506337324e+00  -7.9864639942519897e+00  -7.9246742402817851e+00  -7.8594940687865247e+00  -7.7926347009594474e+00  -7.7258482435984579e+00  -7.6608816218498399e+00  -7.5994307810842514e+00  -7.5430964308992632e+00  -7.4933427793909395e+00  -7.4514610591203727e+00  -7.4185398312757957e+00  -7.3954410148262717e+00  -7.3827550738967158e+00  -7.3805470881125768e+00  -8.2367087557327334e+00  -8.2344642947044449e+00  -8.2207759953479886e+00  -8.1957336201385971e+00  -8.1600479697823758e+00  -8.1147216600111793e+00  -8.0609859264575636e+00  -8.0002749573214551e+00  -7.9341954420662546e+00  -7.8644880871889562e+00  -7.7929836215479611e+00  -7.7215556954001361e+00  -7.6520724886897575e+00  -7.5863485385132057e+00  -7.5260982505403167e+00  -7.4728927032378589e+00  -7.4281215093634829e+00  -7.3929607153728378e+00  -7.3683412337498631e+00  -7.3548778888129362e+00  -7.3525466829779793e+00  -8.2737303517434668e+00  -8.2713589177746094e+00  -8.2566546348192773e+00  -8.2296449724636620e+00  -8.1910673460229617e+00  -8.1420061985898560e+00  -8.0838053517304012e+00  -8.0180291679099884e+00  -7.9464261720135037e+00  -7.8708871797976334e+00  -7.7933984416033750e+00  -7.7159916391043550e+00  -7.6406924829294685e+00  -7.5694694670430804e+00  -7.5041842796432965e+00  -7.4465454044846062e+00  -7.3980662562031458e+00  -7.3600274998612436e+00  -7.3334348042540984e+00  -7.3189260085657182e+00  -7.3164051694075702e+00  -8.3190385444444868e+00  -8.3164843125726549e+00  -8.3004864931691440e+00  -8.2710341410515600e+00  -8.2289059639748210e+00  -8.1752799245094625e+00  -8.1116295883653162e+00  -8.0396737191438596e+00  -7.9613321463116078e+00  -7.8786784738045528e+00  -7.7938888736283278e+00  -7.7091881361676000e+00  -7.6267944266661516e+00  -7.5488641512435706e+00  -7.4774382981027880e+00  -7.4143915733420709e+00  -7.3613852390646750e+00  -7.3198224330296258e+00  -7.2907956399665146e+00  -7.2749771426785639e+00  -7.2722168546163388e+00  -8.3726748851144794e+00  -8.3698862090916624e+00  -8.3523198247828514e+00  -8.3199419261867860e+00  -8.2735915059837257e+00  -8.2145581981995353e+00  -8.1444658489440709e+00  -8.0652123678525918e+00  -7.9789175385537972e+00  -7.8878691738390376e+00  -7.7944664168488682e+00  -7.7011609131699803e+00  -7.6103969480851967e+00  -7.5245516652161797e+00  -7.4458764747143267e+00  -7.3764407112685966e+00  -7.3180781567842903e+00  -7.2723348297293056e+00  -7.2404069773057929e+00  -7.2230169761972904e+00  -7.2199723368751751e+00  -8.4347520368004893e+00  -8.4316786397622199e+00  -8.4122679396260391e+00  -8.3764735417343434e+00  -8.3252146737388433e+00  -8.2599145674342029e+00  -8.1823712269579456e+00  -8.0946881814130602e+00  -7.9992141531291381e+00  -7.8984820351109750e+00  -7.7951459667056682e+00  -7.6919169920773012e+00  -7.5914980417088156e+00  -7.4965189704356385e+00  -7.4094724048595824e+00  -7.3326511803691723e+00  -7.2680878164615557e+00  -7.2174943448028728e+00  -7.1821909053431732e+00  -7.1629667719182111e+00  -7.1595942651337996e+00  -8.5054231526947266e+00  -8.5020145624364272e+00  -8.4804797743066391e+00  -8.4407674568832292e+00  -8.3838974834999398e+00  -8.3114512088998787e+00  -8.2254275661488787e+00  -8.1281642077359901e+00  -8.0222686108778980e+00  -7.9105494010085842e+00  -7.7959468003001824e+00  -7.6814625213411238e+00  -7.5700894459958921e+00  -7.4647413171444246e+00  -7.3681827137907030e+00  -7.2829597471363297e+00  -7.2113318042963712e+00  -7.1552026835646592e+00  -7.1160389698798463e+00  -7.0947142757043151e+00  -7.0909704551777297e+00  -8.5848481023517174e+00  -8.5810526533786753e+00  -8.5571073734269945e+00  -8.5129628780860962e+00  -8.4497611942565669e+00  -8.3692688366441992e+00  -8.2737152208676719e+00  -8.1657027053244153e+00  -8.0481282241903180e+00  -7.9241064526181209e+00  -7.7968935123561698e+00  -7.6698113124301690e+00  -7.5461723113052468e+00  -7.4292042077897857e+00  -7.3219741347506684e+00  -7.2273122996899666e+00  -7.1477352271224284e+00  -7.0853670015948635e+00  -7.0418457176236595e+00  -7.0181479226923269e+00  -7.0139888001216333e+00  -8.6731550116220628e+00  -8.6689191386358111e+00  -8.6422684344081837e+00  -8.5931629896006463e+00  -8.5228907250305994e+00  -8.4334335282745627e+00  -8.3272839808342312e+00  -8.2073418960783435e+00  -8.0768250372716022e+00  -7.9391835505708679e+00  -7.7980171408510000e+00  -7.6569946699886051e+00  -7.5197751115849396e+00  -7.3899282883261375e+00  -7.2708539150908420e+00  -7.1656981197733280e+00  -7.0772672759943775e+00  -7.0079375874571275e+00  -6.9595469864551216e+00  -6.9331957332984420e+00  -6.9285764633074445e+00  -8.7703953726038844e+00  -8.7656630604547630e+00  -8.7360021064886944e+00  -8.6813915908173165e+00  -8.6032928559359068e+00  -8.5039378507961931e+00  -8.3861189629190331e+00  -8.2530686061813405e+00  -8.1083569913562226e+00  -7.9557972194351523e+00  -7.7993566123037237e+00  -7.6430732111949506e+00  -7.4909750393740611e+00  -7.3469989153633675e+00  -7.2149057402660324e+00  -7.0981902072024150e+00  -6.9999841734123525e+00  -6.9229521323703427e+00  -6.8691648181065172e+00  -6.8398706366891311e+00  -6.8347453407690946e+00  -8.8764907661797938e+00  -8.8712030623029072e+00  -8.8382160045065010e+00  -8.7775407522202205e+00  -8.6908455419020978e+00  -8.5806535737977452e+00  -8.4500990132061844e+00  -8.3027848252973673e+00  -8.1426648756385021e+00  -7.9739391405217299e+00  -7.8009606038062937e+00  -7.6281514902084417e+00  -7.4599243676718396e+00  -7.3006024535331067e+00  -7.1543336484919440e+00  -7.0249943358834770e+00  -6.9160811391915393e+00  -6.8305889653066139e+00  -6.7708610706468848e+00  -6.7383241803293874e+00  -6.7326458010458543e+00  -8.9911689970414166e+00  -8.9852634862202532e+00  -8.9486220616381580e+00  -8.8813068029092861e+00  -8.7852353783530042e+00  -8.6632729515111464e+00  -8.5189448346490568e+00  -8.3562659019606755e+00  -8.1796034795716750e+00  -7.9935623818056474e+00  -7.8028899117224553e+00  -7.6123963709134603e+00  -7.4268835110274640e+00  -7.2510716950287417e+00  -7.0895167857355421e+00  -6.9465098870425672e+00  -6.8259563435203408e+00  -6.7312319470042992e+00  -6.6650021151819931e+00  -6.6289108373956838e+00  -6.6226309024968506e+00  -9.1138871517213076e+00  -9.1072972511941384e+00  -9.0666584140288116e+00  -8.9921114496791148e+00  -8.8858797179070503e+00  -8.7512350412320448e+00  -8.5921536125719040e+00  -8.4131077506124985e+00  -8.2189051327592431e+00  -8.0145639777477502e+00  -7.8052204142922399e+00  -7.5960602085099289e+00  -7.3922627667424408e+00  -7.1989431757816682e+00  -7.0210783471488281e+00  -6.8634060686027132e+00  -6.7302903833127328e+00  -6.6255502300023581e+00  -6.5522374216997372e+00  -6.5122654457317060e+00  -6.5053335752627826e+00  -9.2437387218407245e+00  -9.2363925702444902e+00  -9.1913939342757622e+00  -9.1090040960175767e+00  -8.9918291608727472e+00  -8.8436328375918354e+00  -8.6689163986359290e+00  -8.4726601266456285e+00  -8.2601336514084682e+00  -8.0367628983200330e+00  -7.8080467011510102e+00  -7.5795099573310640e+00  -7.3566748977978857e+00  -7.1450295295511488e+00  -6.9499726314723764e+00  -6.7767178828119583e+00  -6.6301456346604883e+00  -6.5145968373587575e+00  -6.4335954229819272e+00  -6.3893967457778338e+00  -6.3817596526581228e+00  -9.3793414209501602e+00  -9.3711599845027003e+00  -9.3214112009130279e+00  -9.2305403848955372e+00  -9.1016450995110461e+00  -8.9390961977904198e+00  -8.7480140668965181e+00  -8.5339428962381323e+00  -8.3026267492962269e+00  -8.0598724897039116e+00  -7.8114863962699399e+00  -7.5632632084123541e+00  -7.3210006675289119e+00  -7.0905102079500182e+00  -6.8775946896995093e+00  -6.6879671250836124e+00  -6.5270909616314938e+00  -6.3999310998612664e+00  -6.3106009053063765e+00  -6.2618006184749868e+00  -6.2534002211340374e+00  -9.5187015276481546e+00  -9.5095952836273092e+00  -9.4546623925947060e+00  -9.3546304387748265e+00  -9.2132456267220508e+00  -9.0356447413326144e+00  -8.8276875588832571e+00  -8.5955426332167519e+00  -8.3454255095529586e+00  -8.0834667809550957e+00  -7.8156850889747718e+00  -7.5480316659868905e+00  -7.2864688253603163e+00  -7.0370435572496923e+00  -6.8059173301429610e+00  -6.5993147140918715e+00  -6.4233588119412666e+00  -6.2837716406047672e+00  -6.1854195340495330e+00  -6.1315976343003404e+00  -6.1223676923260264e+00  -9.6590492374688335e+00  -9.6489123196599955e+00  -9.5882904047373003e+00  -9.4783478596384683e+00  -9.3237113604500124e+00  -9.1305044371784465e+00  -8.9054789689416793e+00  -8.6554884709089333e+00  -8.3871910836915262e+00  -8.1069409026203889e+00  -7.8208215567936472e+00  -7.5347713289922948e+00  -7.2547502765787648e+00  -6.9869017178051305e+00  -6.7376597249150914e+00  -6.5137515617959538e+00  -6.3220438696289856e+00  -6.1691892181171868e+00  -6.0610374197873433e+00  -6.0017012606963158e+00  -5.9915616102238038e+00  -9.7966370644618070e+00  -9.7853368492444197e+00  -9.7184035582544759e+00  -9.5976866561050969e+00  -9.4290406025445730e+00  -9.2198821595970060e+00  -8.9780429257909553e+00  -8.7111100951423630e+00  -8.4261122809402043e+00  -8.1294676959500389e+00  -7.8271125321375754e+00  -7.5247360542710631e+00  -7.2280622282447213e+00  -6.9431258803234703e+00  -6.6764894816514033e+00  -6.4353354596288632e+00  -6.2273553606629548e+00  -6.0603530885844981e+00  -5.9414877323318551e+00  -5.8760262287520488e+00  -5.8648731325008407e+00  -9.9264887461375526e+00  -9.9138469946640377e+00  -9.8397848998222841e+00  -9.7072468424984137e+00  -9.5238411194659687e+00  -9.2986957332750890e+00  -9.0409348602346089e+00  -8.7588890545952154e+00  -8.4598145061025836e+00  -8.1499560471178967e+00  -7.8348155247280404e+00  -7.5195263712208948e+00  -7.2092703783378500e+00  -6.9096909630350103e+00  -6.6272536855298370e+00  -6.3694797666571672e+00  -6.1449388994038951e+00  -5.9628519817477335e+00  -5.8321440199687968e+00  -5.7597525237160090e+00  -5.7474426488627053e+00  -1.0042077283640548e+01  -1.0027834740891128e+01  -9.9455027939135920e+00  -9.7998189947010843e+00  -9.6009452825166051e+00  -9.3602665292534279e+00  -9.0883980325401943e+00  -8.7943302152497189e+00  -8.4852924163422045e+00  -8.1670223338596362e+00  -7.8442270660237909e+00  -7.5211173469493584e+00  -7.2019634532198795e+00  -6.8916522558539359e+00  -6.5962199789781204e+00  -6.3232928596474798e+00  -6.0822878195963117e+00  -5.8841236578140981e+00  -5.7401147017045986e+00  -5.6596721435454969e+00  -5.6459957647825680e+00  -1.0134893481050781e+01  -1.0118639208145220e+01  -1.0026361116473884e+01  -9.8658222334765782e+00  -9.6509415524114726e+00  -9.3960053754638881e+00  -9.1132012940007616e+00  -8.8119071797586042e+00  -8.4989074342638915e+00  -8.1789951760075486e+00  -7.8556722186167596e+00  -7.5318372594950986e+00  -7.2104521627023281e+00  -6.8952167919105447e+00  -6.5912784748305597e+00  -6.3059477440854961e+00  -6.0492650847703935e+00  -5.8340490331793351e+00  -5.6748029442756689e+00  -5.5846695870385643e+00  -5.5693046405723985e+00  -1.0193831936549179e+01  -1.0174848818768311e+01  -1.0070070609114165e+01  -9.8925316829418133e+00  -9.6616436861919119e+00  -9.3951765984903730e+00  -9.1066344859589723e+00  -8.8051773156255582e+00  -8.4965167827001551e+00  -8.1839847929266778e+00  -7.8694796782375018e+00  -7.5542538702314195e+00  -7.2396132462541960e+00  -6.9276330409027471e+00  -6.6219953260059636e+00  -6.3290108029373160e+00  -6.0587432591079686e+00  -5.8258022929140623e+00  -5.6487582226851112e+00  -5.5464384309031143e+00  -5.5288679637702973e+00  -1.0204251019573464e+01  -1.0181137718814790e+01  -1.0059913215060297e+01  -9.8630330667010053e+00  -9.6176108877068049e+00  -9.3449395802476491e+00  -9.0588590492991923e+00  -8.7672166310148327e+00  -8.4738269207099943e+00  -8.1800577707597686e+00  -7.8859362591968267e+00  -7.5909127520863118e+00  -7.2944649358484313e+00  -6.9967221364958316e+00  -6.6992981819383068e+00  -6.4065353169171555e+00  -6.1273006946408852e+00  -5.8770936836510863e+00  -5.6790805645154769e+00  -5.5606569361446274e+00  -5.5400089758290063e+00  -1.0146406119480211e+01  -1.0116051101571037e+01  -9.9724896818316839e+00  -9.7549615977868029e+00  -9.5000867401429048e+00  -9.2310866269972056e+00  -8.9599362079708822e+00  -8.6915717839198408e+00  -8.4270714029626816e+00  -8.1655552169779018e+00  -7.9052160271055216e+00  -7.6438756877111791e+00  -7.3793454693620903e+00  -7.1098012795021104e+00  -6.8343972950015317e+00  -6.5544443197366897e+00  -6.2756533618827470e+00  -6.0119303259565218e+00  -5.7899380752237120e+00  -5.6491632138788761e+00  -5.6238633797532964e+00  -9.9924689952402019e+00  -9.9471900656176029e+00  -9.7740226094864830e+00  -9.5396558457949094e+00  -9.2883361828867006e+00  -9.0402416478934366e+00  -8.8019569426258286e+00  -8.5739022113437535e+00  -8.3540570331004620e+00  -8.1395547731326801e+00  -7.9272799794206552e+00  -7.7140452394829211e+00  -7.4966179001517883e+00  -7.2717478224196741e+00  -7.0363554798035759e+00  -6.7881903740336913e+00  -6.5276790770954989e+00  -6.2625420033026167e+00  -6.0173452942374288e+00  -5.8446467580573884e+00  -5.8115435892701486e+00  -9.6990809080792069e+00  -9.6198897031737225e+00  -9.4156808538820442e+00  -9.1843012816981187e+00  -8.9645249045038913e+00  -8.7645830998461633e+00  -8.5825621709667832e+00  -8.4142438373878736e+00  -8.2554219943588034e+00  -8.1023612940622716e+00  -7.9517185600079143e+00  -7.8003326068227796e+00  -7.6449862859258539e+00  -7.4821572785512540e+00  -7.3077703773246867e+00  -7.1170480460951921e+00  -6.9048944217353396e+00  -6.6684428988407181e+00  -6.4172970464788213e+00  -6.2029948114503748e+00  -6.1545695488672187e+00  -9.1788368425885434e+00  -9.0318646159219540e+00  -8.8351776179701051e+00  -8.6644884975599883e+00  -8.5254006054821012e+00  -8.4095239370105315e+00  -8.3092002570494525e+00  -8.2190727427438350e+00  -8.1354407592009945e+00  -8.0555890847006086e+00  -7.9773310965593156e+00  -7.8986968678329816e+00  -7.8176830105455268e+00  -7.7319936074015274e+00  -7.6386944645774335e+00  -7.5336654458131687e+00  -7.4106792211089649e+00  -7.2600787179262447e+00  -7.0689972477869594e+00  -6.8405838553435734e+00  -6.7593721075414139e+00  -8.0000000000000000e+00  -8.0000000000000000e+00  -8.0000000000000000e+00  -8.0000000000000000e+00  -8.0000000000000000e+00  -8.0000000000000000e+00  -8.0000000000000000e+00  -8.0000000000000000e+00  -8.0000000000000000e+00  -8.0000000000000000e+00  -8.0000000000000000e+00  -8.0000000000000000e+00  -8.0000000000000000e+00  -8.0000000000000000e+00  -8.0000000000000000e+00  -8.0000000000000000e+00  -8.0000000000000000e+00  -8.0000000000000000e+00  -8.0000000000000000e+00  -8.0000000000000000e+00  -8.0000000000000000e+00  </DataArray> 
</PointData> 
</Piece>
</UnstructuredGrid>
</VTKFile>