<?xml version="1.0"?>
<VTKFile type="UnstructuredGrid"  version="0.1"  >
<UnstructuredGrid>
<Piece  NumberOfPoints="651" NumberOfCells="1200">
<Points>
<DataArray  type="Float64"  NumberOfComponents="3"  format="ascii">0 0 0  50000 0 0  100000 0 0  150000 0 0  200000 0 0  250000 0 0  300000 0 0  350000 0 0  400000 0 0  450000 0 0  500000 0 0  550000 0 0  600000 0 0  650000 0 0  700000 0 0  750000 0 0  800000 0 0  850000 0 0  900000 0 0  950000 0 0  1000000 0 0  0 50000 0  50000 50000 0  100000 50000 0  150000 50000 0  200000 50000 0  250000 50000 0  300000 50000 0  350000 50000 0  400000 50000 0  450000 50000 0  500000 50000 0  550000 50000 0  600000 50000 0  650000 50000 0  700000 50000 0  750000 50000 0  800000 50000 0  850000 50000 0  900000 50000 0  950000 50000 0  1000000 50000 0  0 100000 0  50000 100000 0  100000 100000 0  150000 100000 0  200000 100000 0  250000 100000 0  300000 100000 0  350000 100000 0  400000 100000 0  450000 100000 0  500000 100000 0  550000 100000 0  600000 100000 0  650000 100000 0  700000 100000 0  750000 100000 0  800000 100000 0  850000 100000 0  900000 100000 0  950000 100000 0  1000000 100000 0  0 150000 0  50000 150000 0  100000 150000 0  150000 150000 0  200000 150000 0  250000 150000 0  300000 150000 0  350000 150000 0  400000 150000 0  450000 150000 0  500000 150000 0  550000 150000 0  600000 150000 0  650000 150000 0  700000 150000 0  750000 150000 0  800000 150000 0  850000 150000 0  900000 150000 0  950000 150000 0  1000000 150000 0  0 200000 0  50000 200000 0  100000 200000 0  150000 200000 0  200000 200000 0  250000 200000 0  300000 200000 0  350000 200000 0  400000 200000 0  450000 200000 0  500000 200000 0  550000 200000 0  600000 200000 0  650000 200000 0  700000 200000 0  750000 200000 0  800000 200000 0  850000 200000 0  900000 200000 0  950000 200000 0  1000000 200000 0  0 250000 0  50000 250000 0  100000 250000 0  150000 250000 0  200000 250000 0  250000 250000 0  300000 250000 0  350000 250000 0  400000 250000 0  450000 250000 0  500000 250000 0  550000 250000 0  600000 250000 0  650000 250000 0  700000 250000 0  750000 250000 0  800000 250000 0  850000 250000 0  900000 250000 0  950000 250000 0  1000000 250000 0  0 300000 0  50000 300000 0  100000 300000 0  150000 300000 0  200000 300000 0  250000 300000 0  300000 300000 0  350000 300000 0  400000 300000 0  450000 300000 0  500000 300000 0  550000 300000 0  600000 300000 0  650000 300000 0  700000 300000 0  750000 300000 0  800000 300000 0  850000 300000 0  900000 300000 0  950000 300000 0  1000000 300000 0  0 350000 0  50000 350000 0  100000 350000 0  150000 350000 0  200000 350000 0  250000 350000 0  300000 350000 0  350000 350000 0  400000 350000 0  450000 350000 0  500000 350000 0  550000 350000 0  600000 350000 0  650000 350000 0  700000 350000 0  750000 350000 0  800000 350000 0  850000 350000 0  900000 350000 0  950000 350000 0  1000000 350000 0  0 400000 0  50000 400000 0  100000 400000 0  150000 400000 0  200000 400000 0  250000 400000 0  300000 400000 0  350000 400000 0  400000 400000 0  450000 400000 0  500000 400000 0  550000 400000 0  600000 400000 0  650000 400000 0  700000 400000 0  750000 400000 0  800000 400000 0  850000 400000 0  900000 400000 0  950000 400000 0  1000000 400000 0  0 450000 0  50000 450000 0  100000 450000 0  150000 450000 0  200000 450000 0  250000 450000 0  300000 450000 0  350000 450000 0  400000 450000 0  450000 450000 0  500000 450000 0  550000 450000 0  600000 450000 0  650000 450000 0  700000 450000 0  750000 450000 0  800000 450000 0  850000 450000 0  900000 450000 0  950000 450000 0  1000000 450000 0  0 500000 0  50000 500000 0  100000 500000 0  150000 500000 0  200000 500000 0  250000 500000 0  300000 500000 0  350000 500000 0  400000 500000 0  450000 500000 0  500000 500000 0  550000 500000 0  600000 500000 0  650000 500000 0  700000 500000 0  750000 500000 0  800000 500000 0  850000 500000 0  900000 500000 0  950000 500000 0  1000000 500000 0  0 550000 0  50000 550000 0  100000 550000 0  150000 550000 0  200000 550000 0  250000 550000 0  300000 550000 0  350000 550000 0  400000 550000 0  450000 550000 0  500000 550000 0  550000 550000 0  600000 550000 0  650000 550000 0  700000 550000 0  750000 550000 0  800000 550000 0  850000 550000 0  900000 550000 0  950000 550000 0  1000000 550000 0  0 600000 0  50000 600000 0  100000 600000 0  150000 600000 0  200000 600000 0  250000 600000 0  300000 600000 0  350000 600000 0  400000 600000 0  450000 600000 0  500000 600000 0  550000 600000 0  600000 600000 0  650000 600000 0  700000 600000 0  750000 600000 0  800000 600000 0  850000 600000 0  900000 600000 0  950000 600000 0  1000000 600000 0  0 650000 0  50000 650000 0  100000 650000 0  150000 650000 0  200000 650000 0  250000 650000 0  300000 650000 0  350000 650000 0  400000 650000 0  450000 650000 0  500000 650000 0  550000 650000 0  600000 650000 0  650000 650000 0  700000 650000 0  750000 650000 0  800000 650000 0  850000 650000 0  900000 650000 0  950000 650000 0  1000000 650000 0  0 700000 0  50000 700000 0  100000 700000 0  150000 700000 0  200000 700000 0  250000 700000 0  300000 700000 0  350000 700000 0  400000 700000 0  450000 700000 0  500000 700000 0  550000 700000 0  600000 700000 0  650000 700000 0  700000 700000 0  750000 700000 0  800000 700000 0  850000 700000 0  900000 700000 0  950000 700000 0  1000000 700000 0  0 750000 0  50000 750000 0  100000 750000 0  150000 750000 0  200000 750000 0  250000 750000 0  300000 750000 0  350000 750000 0  400000 750000 0  450000 750000 0  500000 750000 0  550000 750000 0  600000 750000 0  650000 750000 0  700000 750000 0  750000 750000 0  800000 750000 0  850000 750000 0  900000 750000 0  950000 750000 0  1000000 750000 0  0 800000 0  50000 800000 0  100000 800000 0  150000 800000 0  200000 800000 0  250000 800000 0  300000 800000 0  350000 800000 0  400000 800000 0  450000 800000 0  500000 800000 0  550000 800000 0  600000 800000 0  650000 800000 0  700000 800000 0  750000 800000 0  800000 800000 0  850000 800000 0  900000 800000 0  950000 800000 0  1000000 800000 0  0 850000 0  50000 850000 0  100000 850000 0  150000 850000 0  200000 850000 0  250000 850000 0  300000 850000 0  350000 850000 0  400000 850000 0  450000 850000 0  500000 850000 0  550000 850000 0  600000 850000 0  650000 850000 0  700000 850000 0  750000 850000 0  800000 850000 0  850000 850000 0  900000 850000 0  950000 850000 0  1000000 850000 0  0 900000 0  50000 900000 0  100000 900000 0  150000 900000 0  200000 900000 0  250000 900000 0  300000 900000 0  350000 900000 0  400000 900000 0  450000 900000 0  500000 900000 0  550000 900000 0  600000 900000 0  650000 900000 0  700000 900000 0  750000 900000 0  800000 900000 0  850000 900000 0  900000 900000 0  950000 900000 0  1000000 900000 0  0 950000 0  50000 950000 0  100000 950000 0  150000 950000 0  200000 950000 0  250000 950000 0  300000 950000 0  350000 950000 0  400000 950000 0  450000 950000 0  500000 950000 0  550000 950000 0  600000 950000 0  650000 950000 0  700000 950000 0  750000 950000 0  800000 950000 0  850000 950000 0  900000 950000 0  950000 950000 0  1000000 950000 0  0 1000000 0  50000 1000000 0  100000 1000000 0  150000 1000000 0  200000 1000000 0  250000 1000000 0  300000 1000000 0  350000 1000000 0  400000 1000000 0  450000 1000000 0  500000 1000000 0  550000 1000000 0  600000 1000000 0  650000 1000000 0  700000 1000000 0  750000 1000000 0  800000 1000000 0  850000 1000000 0  900000 1000000 0  950000 1000000 0  1000000 1000000 0  0 1050000 0  50000 1050000 0  100000 1050000 0  150000 1050000 0  200000 1050000 0  250000 1050000 0  300000 1050000 0  350000 1050000 0  400000 1050000 0  450000 1050000 0  500000 1050000 0  550000 1050000 0  600000 1050000 0  650000 1050000 0  700000 1050000 0  750000 1050000 0  800000 1050000 0  850000 1050000 0  900000 1050000 0  950000 1050000 0  1000000 1050000 0  0 1100000 0  50000 1100000 0  100000 1100000 0  150000 1100000 0  200000 1100000 0  250000 1100000 0  300000 1100000 0  350000 1100000 0  400000 1100000 0  450000 1100000 0  500000 1100000 0  550000 1100000 0  600000 1100000 0  650000 1100000 0  700000 1100000 0  750000 1100000 0  800000 1100000 0  850000 1100000 0  900000 1100000 0  950000 1100000 0  1000000 1100000 0  0 1150000 0  50000 1150000 0  100000 1150000 0  150000 1150000 0  200000 1150000 0  250000 1150000 0  300000 1150000 0  350000 1150000 0  400000 1150000 0  450000 1150000 0  500000 1150000 0  550000 1150000 0  600000 1150000 0  650000 1150000 0  700000 1150000 0  750000 1150000 0  800000 1150000 0  850000 1150000 0  900000 1150000 0  950000 1150000 0  1000000 1150000 0  0 1200000 0  50000 1200000 0  100000 1200000 0  150000 1200000 0  200000 1200000 0  250000 1200000 0  300000 1200000 0  350000 1200000 0  400000 1200000 0  450000 1200000 0  500000 1200000 0  550000 1200000 0  600000 1200000 0  650000 1200000 0  700000 1200000 0  750000 1200000 0  800000 1200000 0  850000 1200000 0  900000 1200000 0  950000 1200000 0  1000000 1200000 0  0 1250000 0  50000 1250000 0  100000 1250000 0  150000 1250000 0  200000 1250000 0  250000 1250000 0  300000 1250000 0  350000 1250000 0  400000 1250000 0  450000 1250000 0  500000 1250000 0  550000 1250000 0  600000 1250000 0  650000 1250000 0  700000 1250000 0  750000 1250000 0  800000 1250000 0  850000 1250000 0  900000 1250000 0  950000 1250000 0  1000000 1250000 0  0 1300000 0  50000 1300000 0  100000 1300000 0  150000 1300000 0  200000 1300000 0  250000 1300000 0  300000 1300000 0  350000 1300000 0  400000 1300000 0  450000 1300000 0  500000 1300000 0  550000 1300000 0  600000 1300000 0  650000 1300000 0  700000 1300000 0  750000 1300000 0  800000 1300000 0  850000 1300000 0  900000 1300000 0  950000 1300000 0  1000000 1300000 0  0 1350000 0  50000 1350000 0  100000 1350000 0  150000 1350000 0  200000 1350000 0  250000 1350000 0  300000 1350000 0  350000 1350000 0  400000 1350000 0  450000 1350000 0  500000 1350000 0  550000 1350000 0  600000 1350000 0  650000 1350000 0  700000 135
[...]
<PointData  Scalars="f_5981"> 
<DataArray  type="Float64"  Name="f_5981"  format="ascii">-8.1068586738750614e+00  -8.1053645029221606e+00  -8.0980080407736192e+00  -8.0847661799721227e+00  -8.0659809449980937e+00  -8.0421512469804952e+00  -8.0139096780943149e+00  -7.9820044085305693e+00  -7.9472790486092828e+00  -7.9106500908336592e+00  -7.8730824954199825e+00  -7.8355640801725590e+00  -7.7990793822517857e+00  -7.7645836671645521e+00  -7.7329777857008795e+00  -7.7050846746043744e+00  -7.6816286580626523e+00  -7.6632198384722274e+00  -7.6503472090248223e+00  -7.6433545786978865e+00  -7.6418442184017206e+00  -8.1082903265230613e+00  -8.1068288580781402e+00  -8.0993667570843044e+00  -8.0860365827219507e+00  -8.0671529148391201e+00  -8.0432054045169501e+00  -8.0148244159341306e+00  -7.9827593205412395e+00  -7.9478566793687957e+00  -7.9110369169739112e+00  -7.8732695091921823e+00  -7.8355471139908648e+00  -7.7988592229416636e+00  -7.7641659631193889e+00  -7.7323727006252039e+00  -7.7043061015605394e+00  -7.6806922196758469e+00  -7.6621364907120260e+00  -7.6491017527913545e+00  -7.6418632349056637e+00  -7.6403525941617243e+00  -8.1152117010674818e+00  -8.1138505508539769e+00  -8.1062159319240799e+00  -8.0924829414132908e+00  -8.0730282605359776e+00  -8.0483664844335099e+00  -8.0191469729498071e+00  -7.9861392598494616e+00  -7.9502127605602828e+00  -7.9123131800462323e+00  -7.8734369607992187e+00  -7.8346045925026493e+00  -7.7968334459011679e+00  -7.7611107732631952e+00  -7.7283675360554467e+00  -7.6994537625790835e+00  -7.6751162047671668e+00  -7.6559790710112363e+00  -7.6425278512592012e+00  -7.6350891573579727e+00  -7.6337338299946307e+00  -8.1275368781781125e+00  -8.1261896692620397e+00  -8.1182673061428705e+00  -8.1038804755992455e+00  -8.0834443333022001e+00  -8.0575208115017318e+00  -8.0268024199005392e+00  -7.9921018371056798e+00  -7.9543338725835069e+00  -7.9144922729904881e+00  -7.8736236054125328e+00  -7.8327995780207944e+00  -7.7930887370549424e+00  -7.7555283270782969e+00  -7.7210970968846020e+00  -7.6906899386307597e+00  -7.6650954607052553e+00  -7.6449777098385763e+00  -7.6308614427122015e+00  -7.6231050240170486e+00  -7.6217475839852753e+00  -8.1450752058046039e+00  -8.1436883084522353e+00  -8.1353134489456984e+00  -8.1200054123126737e+00  -8.0981957283776840e+00  -8.0704946894240415e+00  -8.0376532089765220e+00  -8.0005470389503053e+00  -7.9601579948454138e+00  -7.9175502782365541e+00  -7.8738434346830601e+00  -7.8301834102803500e+00  -7.7877128159721272e+00  -7.7475413252512197e+00  -7.7107171040582028e+00  -7.6782002589941918e+00  -7.6508393856735664e+00  -7.6293518340892792e+00  -7.6143044229625945e+00  -7.6060706497696291e+00  -7.6046364418283003e+00  -8.1677183958397244e+00  -8.1662515279208048e+00  -8.1572529419124269e+00  -8.1407402360058327e+00  -8.1171614976682012e+00  -8.0871769557417572e+00  -8.0516061362517366e+00  -8.0114041616379303e+00  -7.9676393915163937e+00  -7.9214676742420629e+00  -7.8741035437365436e+00  -7.8267894877797799e+00  -7.7807643579127337e+00  -7.7372318753210916e+00  -7.6973301536919845e+00  -7.6621031818348948e+00  -7.6324750975622155e+00  -7.6092270735880749e+00  -7.5929715996095970e+00  -7.5840965335848409e+00  -7.5825447979747933e+00  -8.1954345311566499e+00  -8.1938533547761949e+00  -8.1840612891745899e+00  -8.1660530356226797e+00  -8.1403021167326326e+00  -8.1075258908549959e+00  -8.0686230535291070e+00  -8.0246429556630599e+00  -7.9767585474067291e+00  -7.9262373265796793e+00  -7.8744098702099787e+00  -7.8226366778779486e+00  -7.7722742191397733e+00  -7.7246410485099322e+00  -7.6809848291166780e+00  -7.6424510800614112e+00  -7.6100542188541374e+00  -7.5846501986738408e+00  -7.5669045773258450e+00  -7.5572264909221598e+00  -7.5555264840509553e+00  -8.2282524048698598e+00  -8.2265250724281511e+00  -8.2157711570686818e+00  -8.1959717730709443e+00  -8.1676373618338189e+00  -8.1315534903472351e+00  -8.0887106165697524e+00  -8.0402675006386826e+00  -7.9875192512985267e+00  -7.9318642766702077e+00  -7.8747694534435055e+00  -7.8177339762465445e+00  -7.7622525665901350e+00  -7.7097787322300597e+00  -7.6616887631680388e+00  -7.6192471239531550e+00  -7.5835736389416502e+00  -7.5556115458297368e+00  -7.5360898157691993e+00  -7.5254483322217460e+00  -7.5235722651182604e+00  -8.2662441245102496e+00  -8.2643395814315781e+00  -8.2524548461482290e+00  -8.2305636026450362e+00  -8.1992252910937449e+00  -8.1593070505317673e+00  -8.1119057164711297e+00  -8.0583056923359155e+00  -7.9999420291041963e+00  -7.9383629886741360e+00  -7.8751913992052724e+00  -7.8120851202868629e+00  -7.7506970838593876e+00  -7.6926353702182952e+00  -7.6394237902878093e+00  -7.5924634648444087e+00  -7.5529956982791679e+00  -7.5220651722159957e+00  -7.5004765481856310e+00  -7.4887106385744762e+00  -7.4866315397304923e+00  -8.3095064579192783e+00  -8.3073934968825114e+00  -8.2942063672904514e+00  -8.2699159244089540e+00  -8.2351429908896048e+00  -8.1908512286623179e+00  -8.1382602275116120e+00  -8.0787975077981553e+00  -8.0140563612430693e+00  -7.9457537256749617e+00  -7.8756874748568428e+00  -7.8056933419571690e+00  -7.7376016995895061e+00  -7.6731943481451506e+00  -7.6141614901730597e+00  -7.5620591733577704e+00  -7.5182674265264176e+00  -7.4839481349464405e+00  -7.4599954093958880e+00  -7.4469415814161657e+00  -7.4446324969687963e+00  -8.3581402198140129e+00  -8.3557868773718074e+00  -8.3411215905431728e+00  -8.3141165465068863e+00  -8.2754670269696469e+00  -8.2262497123645488e+00  -8.1678250274520163e+00  -8.1017823569492258e+00  -8.0298920797719013e+00  -7.9540584368786611e+00  -7.8762726774991343e+00  -7.7985665651205931e+00  -7.7229661284393387e+00  -7.6514453692843238e+00  -7.5858796801393336e+00  -7.5279989526744231e+00  -7.4793404976828910e+00  -7.4412008596704027e+00  -7.4145789028449904e+00  -7.4000697942403511e+00  -7.3975034149519683e+00  -8.4122267598658187e+00  -8.4095998892471098e+00  -8.3932753422407327e+00  -8.3632312111239955e+00  -8.3202516979000336e+00  -8.2655449527442606e+00  -8.2006322388034576e+00  -8.1272848847039718e+00  -8.0474696204899612e+00  -7.9632960783344684e+00  -7.8769659179054603e+00  -7.7907234047106426e+00  -7.7068068055895775e+00  -7.6273996523190890e+00  -7.5545809832368818e+00  -7.4902740722294476e+00  -7.4361935701765036e+00  -7.3937901713823608e+00  -7.3641848063460857e+00  -7.3480481466951657e+00  -7.3451966150174686e+00  -8.4718004838767129e+00  -8.4688654221014357e+00  -8.4506943426835797e+00  -8.4172770445777108e+00  -8.3695034451560222e+00  -8.3087343685588806e+00  -8.2366743526270731e+00  -8.1552982259347395e+00  -8.0667884936838554e+00  -7.9734770909184354e+00  -7.8777908982924689e+00  -7.7822003915753024e+00  -7.6891699709130785e+00  -7.6011080172152052e+00  -7.5203148065252483e+00  -7.4489270427409000e+00  -7.3888585715869111e+00  -7.3417363921057310e+00  -7.3088236638903936e+00  -7.2908814854076480e+00  -7.2877162868035681e+00  -8.5368162075087071e+00  -8.5335364791566395e+00  -8.5133247331771376e+00  -8.4761904757689965e+00  -8.4231497876138164e+00  -8.3557413651549304e+00  -8.2758787344154374e+00  -8.1857635095236159e+00  -8.0878131543718670e+00  -7.9845966471514913e+00  -7.8787772425873221e+00  -7.7730609212864117e+00  -7.6701478093237103e+00  -7.5726831144126168e+00  -7.4832042401736620e+00  -7.4040816692896367e+00  -7.3374525385523475e+00  -7.2851459610293885e+00  -7.2485916370180901e+00  -7.2286595428671339e+00  -7.2251514150824230e+00  -8.6071099920540313e+00  -8.6034469875795896e+00  -8.5809927334826259e+00  -8.5397879746288972e+00  -8.4810009662167225e+00  -8.4063793197856214e+00  -8.3180758072171432e+00  -8.2185442142198628e+00  -8.1104553016870984e+00  -7.9966261941079031e+00  -7.8799619337203657e+00  -7.7634065039388096e+00  -7.6498987075335974e+00  -7.5423272614317405e+00  -7.4434796218505017e+00  -7.3559803473893037e+00  -7.2822168306336641e+00  -7.2242512288763638e+00  -7.1837101793703431e+00  -7.1615963723539444e+00  -7.1577151588236303e+00  -8.6823519330319741e+00  -8.6782644732281344e+00  -8.6533567049850557e+00  -8.6077176456713094e+00  -8.5427021505629632e+00  -8.4603063666508973e+00  -8.3629589326986853e+00  -8.2533937669240789e+00  -8.1345514950241160e+00  -8.0095027480137766e+00  -7.8813911109200605e+00  -7.7533909646075854e+00  -7.6286728411048870e+00  -7.5103675873289752e+00  -7.4015208175268477e+00  -7.3050308148987897e+00  -7.2235658873481388e+00  -7.1594593951881267e+00  -7.1145742573392887e+00  -7.0900778655543588e+00  -7.0857922102392461e+00  -8.7619891451627989e+00  -8.7574327908255771e+00  -8.7298485402716430e+00  -8.6793992614638125e+00  -8.6076735810300065e+00  -8.5169683906781337e+00  -8.4100336946619851e+00  -8.2899145762898101e+00  -8.1598348705964465e+00  -8.0231153504271919e+00  -7.8831222713727920e+00  -7.7432382797717034e+00  -7.6068444178360055e+00  -7.4773004120859792e+00  -7.3579106276449791e+00  -7.2518650363836992e+00  -7.1621482001202539e+00  -7.0914130158580448e+00  -7.0418111991135977e+00  -7.0147191766945927e+00  -7.0099959065197925e+00  -8.8451768705834031e+00  -8.8401027434927375e+00  -8.8096017892843914e+00  -8.7539496785977562e+00  -8.6750353785298380e+00  -8.5755271433950906e+00  -8.4585540129512431e+00  -8.3275066129222513e+00  -8.1858997644865124e+00  -8.0372881217616747e+00  -7.8852268923785545e+00  -7.7332646662277709e+00  -7.5849518734467578e+00  -7.4438469043498898e+00  -7.3135020696098696e+00  -7.1974134628525182e+00  -7.0989228636675676e+00  -7.0210651761735834e+00  -6.9663527829155560e+00  -6.9364342667595746e+00  -6.9312372263362754e+00  -8.9306951472883878e+00  -8.9250478659244195e+00  -8.8913631338386718e+00  -8.8300896258113184e+00  -8.7435129117472989e+00  -8.6347699058741370e+00  -8.5074424533807864e+00  -8.3653038935840272e+00  -8.2121583768317397e+00  -8.0517595386991800e+00  -7.8877934222018942e+00  -7.7239052373942023e+00  -7.5637469430737561e+00  -7.4110218563674426e+00  -7.2695024617881758e+00  -7.1429985351184753e+00  -7.0352560233128916e+00  -6.9497734371085249e+00  -6.8895240101941617e+00  -6.8565204021419550e+00  -6.8508083771573656e+00  -9.0168476442736676e+00  -9.0105616843367429e+00  -8.9733824757683411e+00  -8.9060263725592836e+00  -8.8113175290859171e+00  -8.6929968308546162e+00  -8.5551926068388671e+00  -8.4020982022230761e+00  -8.2377895729698682e+00  -8.0661580842533827e+00  -7.8909304475647843e+00  -7.7157447819757223e+00  -7.5442524518106371e+00  -7.3802164826795122e+00  -7.2275769195517556e+00  -7.0904518580701943e+00  -6.9730428481225539e+00  -6.8794182720060268e+00  -6.8131534200913624e+00  -6.7767615083622408e+00  -6.7704846675243893e+00  -9.1013377690704420e+00  -9.0943310001352700e+00  -9.0532744905002112e+00  -8.9793043923690377e+00  -8.8759961487242833e+00  -8.7478824380808646e+00  -8.5997531861562972e+00  -8.4362518040120715e+00  -8.2616820600654286e+00  -8.0799755437975271e+00  -7.8947695834858873e+00  -7.7095506357755523e+00  -7.5278262550795878e+00  -7.3532937421457234e+00  -7.1899724168820676e+00  -7.0422596393750849e+00  -6.9148624553812343e+00  -6.8125543794877714e+00  -6.7397123192229804e+00  -6.6995562158912101e+00  -6.6926501542141832e+00  -9.1811143349136124e+00  -9.1732763359430542e+00  -9.1278399705125466e+00  -9.0466121884210811e+00  -8.9342418827805083e+00  -8.7963097128595802e+00  -8.6383978560016406e+00  -8.4656059878498624e+00  -8.2823783439587402e+00  -8.0925413417565295e+00  -7.8994671817102615e+00  -7.7063026754754009e+00  -7.5162240286817443e+00  -7.3326894943551633e+00  -7.1596596717489289e+00  -7.0017399518298271e+00  -6.8641755385060303e+00  -6.7526078188859060e+00  -6.6724949956028254e+00  -6.6280800966584232e+00  -6.6204559440812325e+00  -9.2521736560317454e+00  -9.2433438157541090e+00  -9.1928265008209955e+00  -9.1035270186160151e+00  -8.9816575163239154e+00  -8.8341810925678903e+00  -8.6675941731187738e+00  -8.4874018663908899e+00  -8.2980331772353768e+00  -8.1030049076205000e+00  -7.9052032584116017e+00  -7.7072105227557746e+00  -7.5116451788036311e+00  -7.3215026809416788e+00  -7.1404812653540430e+00  -6.9732511942509383e+00  -6.8255769370988242e+00  -6.7041398094206448e+00  -6.6158610736732735e+00  -6.5664987606740173e+00  -6.5580266368813067e+00  -9.3092943337747904e+00  -9.2992182026726695e+00  -9.2425905741433638e+00  -9.1441695296894281e+00  -9.0124674612749924e+00  -8.8562251375665006e+00  -8.6829034626952684e+00  -8.4982464163919911e+00  -8.3064117240013147e+00  -8.1103384672353442e+00  -7.9121751174951287e+00  -7.7137006751469022e+00  -7.5167325222326191e+00  -7.3235394734257380e+00  -7.1372758524416042e+00  -6.9624191296567028e+00  -6.8051160859621289e+00  -6.6732115335253077e+00  -6.5755794152860476e+00  -6.5202631048733473e+00  -6.5107437499512750e+00  -9.3456598567815998e+00  -9.3338938831453877e+00  -9.2695884058274434e+00  -9.1607289529834635e+00  -9.0191911634048747e+00  -8.8558508016685167e+00  -8.6789771376314739e+00  -8.4941824006755233e+00  -8.3049683364128768e+00  -8.1133794822024647e+00  -7.9205822274330968e+00  -7.7273471157956628e+00  -7.5344771580262950e+00  -7.3432462152152889e+00  -7.1559115767104897e+00  -6.9763389631762855e+00  -6.8106899017446594e+00  -6.6679059820978202e+00  -6.5593510480345500e+00  -6.4965495593065539e+00  -6.4856633712622322e+00  -9.3522808359692373e+00  -9.3379596968105094e+00  -9.2635553178926155e+00  -9.1428203820108767e+00  -8.9923471799450390e+00  -8.8251714553121730e+00  -8.6497705928059059e+00  -8.4709543293073288e+00  -8.2910629449170106e+00  -8.1109378047700211e+00  -7.9305985881443171e+00  -7.7497113972006426e+00  -7.5679589146552129e+00  -7.3854228951541598e+00  -7.2030940982735832e+00  -7.0236333612368176e+00  -6.8524700991442655e+00  -6.6990905188893848e+00  -6.5776711585741658e+00  -6.5049821826112950e+00  -6.4921904221490152e+00  -9.3170317661646322e+00  -9.2982382841641780e+00  -9.2101219792260949e+00  -9.0767086759503819e+00  -8.9204131976891041e+00  -8.7554554122745465e+00  -8.5891724279909258e+00  -8.4245915602441475e+00  -8.2623765097332953e+00  -8.1019909163270842e+00  -7.9423297318804247e+00  -7.7820603619859998e+00  -7.6198437472091962e+00  -7.4545644718561110e+00  -7.2857066899440577e+00  -7.1140753579499769e+00  -6.9431684145293158e+00  -6.7814965316947893e+00  -6.6453735838286905e+00  -6.5589682958763680e+00  -6.5432990626718688e+00  -9.2228168892575404e+00  -9.1948289360242867e+00  -9.0885424957646705e+00  -8.9447848256850921e+00  -8.7906422917253675e+00  -8.6384719757881587e+00  -8.4923094864568291e+00  -8.3524149589014467e+00  -8.2175527033365867e+00  -8.0859677113240505e+00  -7.9557519276530861e+00  -7.8249530008650439e+00  -7.6915910497209516e+00  -7.5536760384494546e+00  -7.4093233068932527e+00  -7.2571568879322914e+00  -7.0974403010267952e+00  -6.9348992149606676e+00  -6.7845597286586434e+00  -6.6785779114202155e+00  -6.6580885878587219e+00  -9.0429843512449040e+00  -8.9941536953452292e+00  -8.8688163900434311e+00  -8.7268729909367835e+00  -8.5920512069446797e+00  -8.4693862886076925e+00  -8.3577056832605141e+00  -8.2544260360867217e+00  -8.1569707147635153e+00  -8.0630507257775523e+00  -7.9706169314966795e+00  -7.8777316345131423e+00  -7.7824231013903953e+00  -7.6825332140605385e+00  -7.5755661248651673e+00  -7.4585971804390079e+00  -7.3285081979097066e+00  -7.1835455045434031e+00  -7.0295797855238265e+00  -6.8981154352036924e+00  -6.8681850216652247e+00  -8.7237623750818081e+00  -8.6333709957439932e+00  -8.5126512605754527e+00  -8.4079266783296376e+00  -8.3225843316040287e+00  -8.2514725896429617e+00  -8.1898979939021590e+00  -8.1345779167302918e+00  -8.0832439006126222e+00  -8.0342309066421773e+00  -7.9861976992724593e+00  -7.9379358880902071e+00  -7.8882167383706854e+00  -7.8356325394676327e+00  -7.7783849721097633e+00  -7.7139499897082180e+00  -7.6385141167707227e+00  -7.5461644170082902e+00  -7.4290179778762999e+00  -7.2889739314553719e+00  -7.2389268721914286e+00  -8.0000000000000000e+00  -8.0000000000000000e+00  -8.0000000000000000e+00  -8.0000000000000000e+00  -8.0000000000000000e+00  -8.0000000000000000e+00  -8.0000000000000000e+00  -8.0000000000000000e+00  -8.0000000000000000e+00  -8.0000000000000000e+00  -8.0000000000000000e+00  -8.0000000000000000e+00  -8.0000000000000000e+00  -8.0000000000000000e+00  -8.0000000000000000e+00  -8.0000000000000000e+00  -8.0000000000000000e+00  -8.0000000000000000e+00  -8.0000000000000000e+00  -8.0000000000000000e+00  -8.0000000000000000e+00  </DataArray> 
</PointData> 
</Piece>
</UnstructuredGrid>
</VTKFile>