<?xml version="1.0"?>
<VTKFile type="UnstructuredGrid"  version="0.1"  >
<UnstructuredGrid>
<Piece  NumberOfPoints="651" NumberOfCells="1200">
<Points>
<DataArray  type="Float64"  NumberOfComponents="3"  format="ascii">0 0 0  50000 0 0  100000 0 0  150000 0 0  200000 0 0  250000 0 0  300000 0 0  350000 0 0  400000 0 0  450000 0 0  500000 0 0  550000 0 0  600000 0 0  650000 0 0  700000 0 0  750000 0 0  800000 0 0  850000 0 0  900000 0 0  950000 0 0  1000000 0 0  0 50000 0  50000 50000 0  100000 50000 0  150000 50000 0  200000 50000 0  250000 50000 0  300000 50000 0  350000 50000 0  400000 50000 0  450000 50000 0  500000 50000 0  550000 50000 0  600000 50000 0  650000 50000 0  700000 50000 0  750000 50000 0  800000 50000 0  850000 50000 0  900000 50000 0  950000 50000 0  1000000 50000 0  0 100000 0  50000 100000 0  100000 100000 0  150000 100000 0  200000 100000 0  250000 100000 0  300000 100000 0  350000 100000 0  400000 100000 0  450000 100000 0  500000 100000 0  550000 100000 0  600000 100000 0  650000 100000 0  700000 100000 0  750000 100000 0  800000 100000 0  850000 100000 0  900000 100000 0  950000 100000 0  1000000 100000 0  0 150000 0  50000 150000 0  100000 150000 0  150000 150000 0  200000 150000 0  250000 150000 0  300000 150000 0  350000 150000 0  400000 150000 0  450000 150000 0  500000 150000 0  550000 150000 0  600000 150000 0  650000 150000 0  700000 150000 0  750000 150000 0  800000 150000 0  850000 150000 0  900000 150000 0  950000 150000 0  1000000 150000 0  0 200000 0  50000 200000 0  100000 200000 0  150000 200000 0  200000 200000 0  250000 200000 0  300000 200000 0  350000 200000 0  400000 200000 0  450000 200000 0  500000 200000 0  550000 200000 0  600000 200000 0  650000 200000 0  700000 200000 0  750000 200000 0  800000 200000 0  850000 200000 0  900000 200000 0  950000 200000 0  1000000 200000 0  0 250000 0  50000 250000 0  100000 250000 0  150000 250000 0  200000 250000 0  250000 250000 0  300000 250000 0  350000 250000 0  400000 250000 0  450000 250000 0  500000 250000 0  550000 250000 0  600000 250000 0  650000 250000 0  700000 250000 0  750000 250000 0  800000 250000 0  850000 250000 0  900000 250000 0  950000 250000 0  1000000 250000 0  0 300000 0  50000 300000 0  100000 300000 0  150000 300000 0  200000 300000 0  250000 300000 0  300000 300000 0  350000 300000 0  400000 300000 0  450000 300000 0  500000 300000 0  550000 300000 0  600000 300000 0  650000 300000 0  700000 300000 0  750000 300000 0  800000 300000 0  850000 300000 0  900000 300000 0  950000 300000 0  1000000 300000 0  0 350000 0  50000 350000 0  100000 350000 0  150000 350000 0  200000 350000 0  250000 350000 0  300000 350000 0  350000 350000 0  400000 350000 0  450000 350000 0  500000 350000 0  550000 350000 0  600000 350000 0  650000 350000 0  700000 350000 0  750000 350000 0  800000 350000 0  850000 350000 0  900000 350000 0  950000 350000 0  1000000 350000 0  0 400000 0  50000 400000 0  100000 400000 0  150000 400000 0  200000 400000 0  250000 400000 0  300000 400000 0  350000 400000 0  400000 400000 0  450000 400000 0  500000 400000 0  550000 400000 0  600000 400000 0  650000 400000 0  700000 400000 0  750000 400000 0  800000 400000 0  850000 400000 0  900000 400000 0  950000 400000 0  1000000 400000 0  0 450000 0  50000 450000 0  100000 450000 0  150000 450000 0  200000 450000 0  250000 450000 0  300000 450000 0  350000 450000 0  400000 450000 0  450000 450000 0  500000 450000 0  550000 450000 0  600000 450000 0  650000 450000 0  700000 450000 0  750000 450000 0  800000 450000 0  850000 450000 0  900000 450000 0  950000 450000 0  1000000 450000 0  0 500000 0  50000 500000 0  100000 500000 0  150000 500000 0  200000 500000 0  250000 500000 0  300000 500000 0  350000 500000 0  400000 500000 0  450000 500000 0  500000 500000 0  550000 500000 0  600000 500000 0  650000 500000 0  700000 500000 0  750000 500000 0  800000 500000 0  850000 500000 0  900000 500000 0  950000 500000 0  1000000 500000 0  0 550000 0  50000 550000 0  100000 550000 0  150000 550000 0  200000 550000 0  250000 550000 0  300000 550000 0  350000 550000 0  400000 550000 0  450000 550000 0  500000 550000 0  550000 550000 0  600000 550000 0  650000 550000 0  700000 550000 0  750000 550000 0  800000 550000 0  850000 550000 0  900000 550000 0  950000 550000 0  1000000 550000 0  0 600000 0  50000 600000 0  100000 600000 0  150000 600000 0  200000 600000 0  250000 600000 0  300000 600000 0  350000 600000 0  400000 600000 0  450000 600000 0  500000 600000 0  550000 600000 0  600000 600000 0  650000 600000 0  700000 600000 0  750000 600000 0  800000 600000 0  850000 600000 0  900000 600000 0  950000 600000 0  1000000 600000 0  0 650000 0  50000 650000 0  100000 650000 0  150000 650000 0  200000 650000 0  250000 650000 0  300000 650000 0  350000 650000 0  400000 650000 0  450000 650000 0  500000 650000 0  550000 650000 0  600000 650000 0  650000 650000 0  700000 650000 0  750000 650000 0  800000 650000 0  850000 650000 0  900000 650000 0  950000 650000 0  1000000 650000 0  0 700000 0  50000 700000 0  100000 700000 0  150000 700000 0  200000 700000 0  250000 700000 0  300000 700000 0  350000 700000 0  400000 700000 0  450000 700000 0  500000 700000 0  550000 700000 0  600000 700000 0  650000 700000 0  700000 700000 0  750000 700000 0  800000 700000 0  850000 700000 0  900000 700000 0  950000 700000 0  1000000 700000 0  0 750000 0  50000 750000 0  100000 750000 0  150000 750000 0  200000 750000 0  250000 750000 0  300000 750000 0  350000 750000 0  400000 750000 0  450000 750000 0  500000 750000 0  550000 750000 0  600000 750000 0  650000 750000 0  700000 750000 0  750000 750000 0  800000 750000 0  850000 750000 0  900000 750000 0  950000 750000 0  1000000 750000 0  0 800000 0  50000 800000 0  100000 800000 0  150000 800000 0  200000 800000 0  250000 800000 0  300000 800000 0  350000 800000 0  400000 800000 0  450000 800000 0  500000 800000 0  550000 800000 0  600000 800000 0  650000 800000 0  700000 800000 0  750000 800000 0  800000 800000 0  850000 800000 0  900000 800000 0  950000 800000 0  1000000 800000 0  0 850000 0  50000 850000 0  100000 850000 0  150000 850000 0  200000 850000 0  250000 850000 0  300000 850000 0  350000 850000 0  400000 850000 0  450000 850000 0  500000 850000 0  550000 850000 0  600000 850000 0  650000 850000 0  700000 850000 0  750000 850000 0  800000 850000 0  850000 850000 0  900000 850000 0  950000 850000 0  1000000 850000 0  0 900000 0  50000 900000 0  100000 900000 0  150000 900000 0  200000 900000 0  250000 900000 0  300000 900000 0  350000 900000 0  400000 900000 0  450000 900000 0  500000 900000 0  550000 900000 0  600000 900000 0  650000 900000 0  700000 900000 0  750000 900000 0  800000 900000 0  850000 900000 0  900000 900000 0  950000 900000 0  1000000 900000 0  0 950000 0  50000 950000 0  100000 950000 0  150000 950000 0  200000 950000 0  250000 950000 0  300000 950000 0  350000 950000 0  400000 950000 0  450000 950000 0  500000 950000 0  550000 950000 0  600000 950000 0  650000 950000 0  700000 950000 0  750000 950000 0  800000 950000 0  850000 950000 0  900000 950000 0  950000 950000 0  1000000 950000 0  0 1000000 0  50000 1000000 0  100000 1000000 0  150000 1000000 0  200000 1000000 0  250000 1000000 0  300000 1000000 0  350000 1000000 0  400000 1000000 0  450000 1000000 0  500000 1000000 0  550000 1000000 0  600000 1000000 0  650000 1000000 0  700000 1000000 0  750000 1000000 0  800000 1000000 0  850000 1000000 0  900000 1000000 0  950000 1000000 0  1000000 1000000 0  0 1050000 0  50000 1050000 0  100000 1050000 0  150000 1050000 0  200000 1050000 0  250000 1050000 0  300000 1050000 0  350000 1050000 0  400000 1050000 0  450000 1050000 0  500000 1050000 0  550000 1050000 0  600000 1050000 0  650000 1050000 0  700000 1050000 0  750000 1050000 0  800000 1050000 0  850000 1050000 0  900000 1050000 0  950000 1050000 0  1000000 1050000 0  0 1100000 0  50000 1100000 0  100000 1100000 0  150000 1100000 0  200000 1100000 0  250000 1100000 0  300000 1100000 0  350000 1100000 0  400000 1100000 0  450000 1100000 0  500000 1100000 0  550000 1100000 0  600000 1100000 0  650000 1100000 0  700000 1100000 0  750000 1100000 0  800000 1100000 0  850000 1100000 0  900000 1100000 0  950000 1100000 0  1000000 1100000 0  0 1150000 0  50000 1150000 0  100000 1150000 0  150000 1150000 0  200000 1150000 0  250000 1150000 0  300000 1150000 0  350000 1150000 0  400000 1150000 0  450000 1150000 0  500000 1150000 0  550000 1150000 0  600000 1150000 0  650000 1150000 0  700000 1150000 0  750000 1150000 0  800000 1150000 0  850000 1150000 0  900000 1150000 0  950000 1150000 0  1000000 1150000 0  0 1200000 0  50000 1200000 0  100000 1200000 0  150000 1200000 0  200000 1200000 0  250000 1200000 0  300000 1200000 0  350000 1200000 0  400000 1200000 0  450000 1200000 0  500000 1200000 0  550000 1200000 0  600000 1200000 0  650000 1200000 0  700000 1200000 0  750000 1200000 0  800000 1200000 0  850000 1200000 0  900000 1200000 0  950000 1200000 0  1000000 1200000 0  0 1250000 0  50000 1250000 0  100000 1250000 0  150000 1250000 0  200000 1250000 0  250000 1250000 0  300000 1250000 0  350000 1250000 0  400000 1250000 0  450000 1250000 0  500000 1250000 0  550000 1250000 0  600000 1250000 0  650000 1250000 0  700000 1250000 0  750000 1250000 0  800000 1250000 0  850000 1250000 0  900000 1250000 0  950000 1250000 0  1000000 1250000 0  0 1300000 0  50000 1300000 0  100000 1300000 0  150000 1300000 0  200000 1300000 0  250000 1300000 0  300000 1300000 0  350000 1300000 0  400000 1300000 0  450000 1300000 0  500000 1300000 0  550000 1300000 0  600000 1300000 0  650000 1300000 0  700000 1300000 0  750000 1300000 0  800000 1300000 0  850000 1300000 0  900000 1300000 0  950000 1300000 0  1000000 1300000 0  0 1350000 0  50000 1350000 0  100000 1350000 0  150000 1350000 0  200000 1350000 0  250000 1350000 0  300000 1350000 0  350000 1350000 0  400000 1350000 0  450000 1350000 0  500000 1350000 0  550000 1350000 0  600000 1350000 0  650000 1350000 0  700000 135
[...]
<PointData  Scalars="f_5981"> 
<DataArray  type="Float64"  Name="f_5981"  format="ascii">-8.0224193435468010e+00  -8.0221080978604746e+00  -8.0206684879313705e+00  -8.0180931444734913e+00  -8.0144434462665135e+00  -8.0098126697441021e+00  -8.0043214714983417e+00  -7.9981142068388014e+00  -7.9913548132921193e+00  -7.9842221991133950e+00  -7.9769052457902090e+00  -7.9695975576034570e+00  -7.9624920969269528e+00  -7.9557758472153992e+00  -7.9496246499460756e+00  -7.9441983758739232e+00  -7.9396366461464449e+00  -7.9360554912801717e+00  -7.9335455013064120e+00  -7.9321668581900528e+00  -7.9318495250175172e+00  -8.0227106294181638e+00  -8.0224041189571427e+00  -8.0209443754201608e+00  -8.0183507690217350e+00  -8.0146799840308098e+00  -8.0100237667605700e+00  -8.0045025064022077e+00  -7.9982609055291878e+00  -7.9914635715411517e+00  -7.9842902707290211e+00  -7.9769308579046712e+00  -7.9695799756783465e+00  -7.9624316471723864e+00  -7.9556738964482854e+00  -7.9494835341543961e+00  -7.9440212441424798e+00  -7.9394270871824775e+00  -7.9358164146820656e+00  -7.9332755352940296e+00  -7.9318535491658402e+00  -7.9315361466174235e+00  -8.0240540298353338e+00  -8.0237620792884439e+00  -8.0222659262560541e+00  -8.0195934206288388e+00  -8.0158116778944155e+00  -8.0110168186648050e+00  -8.0053327720238165e+00  -7.9989081160713305e+00  -7.9919118909530225e+00  -7.9845287802084499e+00  -7.9769538912160902e+00  -7.9693872918218460e+00  -7.9620284405104211e+00  -7.9550706465223433e+00  -7.9486956991955209e+00  -7.9430688106975609e+00  -7.9383340238330131e+00  -7.9346102351925918e+00  -7.9319878644821031e+00  -7.9305250975203947e+00  -7.9302320196836105e+00  -8.0264380860596294e+00  -8.0261448289945729e+00  -8.0245879871641463e+00  -8.0217862017289701e+00  -8.0178135927733702e+00  -8.0127746301918243e+00  -8.0068011034652766e+00  -8.0000496681282467e+00  -7.9926979995366638e+00  -7.9849399964129706e+00  -7.9769804215228168e+00  -7.9690292277830483e+00  -7.9612957531915782e+00  -7.9539829452522248e+00  -7.9472817752341118e+00  -7.9413660193200029e+00  -7.9363876190836296e+00  -7.9324728604043466e+00  -7.9297193469227558e+00  -7.9281913331800125e+00  -7.9278949533645360e+00  -8.0298347383451922e+00  -8.0295299273798992e+00  -8.0278802746304354e+00  -8.0248962598296529e+00  -8.0206556936190889e+00  -8.0152719707799100e+00  -8.0088876621505278e+00  -8.0016712459925916e+00  -7.9938131163738850e+00  -7.9855206545531230e+00  -7.9770126551688101e+00  -7.9685133785162900e+00  -7.9602464428344710e+00  -7.9524287416208139e+00  -7.9452645674012032e+00  -7.9389401389107395e+00  -7.9336187486746379e+00  -7.9294366873088951e+00  -7.9264995110592507e+00  -7.9248749274578199e+00  -7.9245613175950469e+00  -8.0342312181571760e+00  -8.0339068453894527e+00  -8.0321311684848240e+00  -8.0289093044400257e+00  -8.0243229022266647e+00  -8.0184949118691318e+00  -8.0115808235640298e+00  -8.0037641349082307e+00  -7.9952517438872697e+00  -7.9862686182662488e+00  -7.9770518559381456e+00  -7.9678443610306342e+00  -7.9588883472038869e+00  -7.9504188601815651e+00  -7.9426575069856575e+00  -7.9358065855930970e+00  -7.9300437977062010e+00  -7.9255175814810794e+00  -7.9223423260701926e+00  -7.9205891429260706e+00  -7.9202500747021487e+00  -8.0396288828008888e+00  -8.0392778787038601e+00  -8.0373430077693975e+00  -8.0338261757956193e+00  -8.0288144030964812e+00  -8.0224416914614949e+00  -8.0148786485563264e+00  -8.0063267840682091e+00  -7.9970130787417952e+00  -7.9871840332632438e+00  -7.9770991988569993e+00  -7.9670243569638624e+00  -7.9572245342020045e+00  -7.9479570318535284e+00  -7.9394646461889158e+00  -7.9319692554460577e+00  -7.9256659185959446e+00  -7.9207174447981439e+00  -7.9172485483618313e+00  -7.9153349493798393e+00  -7.9149638945382836e+00  -8.0460403826002871e+00  -8.0456560202971836e+00  -8.0435287125592740e+00  -8.0396585641123561e+00  -8.0341399438766494e+00  -8.0271200285980537e+00  -8.0187870768297795e+00  -8.0093636778113986e+00  -7.9991004269378916e+00  -7.9882692158170610e+00  -7.9771561002137021e+00  -7.9660538740159001e+00  -7.9552545027963815e+00  -7.9450415685873477e+00  -7.9356828772481247e+00  -7.9274233802912129e+00  -7.9204785311127921e+00  -7.9150280034528997e+00  -7.9112088222553751e+00  -7.9091029594449695e+00  -7.9086938762140759e+00  -8.0534864708421470e+00  -8.0530620722270374e+00  -8.0507086276714386e+00  -8.0464253956871179e+00  -8.0403162109681379e+00  -8.0325439455285519e+00  -8.0233173930530430e+00  -8.0128834869401082e+00  -8.0015200325644962e+00  -7.9895281460492580e+00  -7.9772243649694161e+00  -7.9649325371953186e+00  -7.9529756059419556e+00  -7.9416674026442600e+00  -7.9313045616611859e+00  -7.9221586803206261e+00  -7.9144688300648642e+00  -7.9084343439355917e+00  -7.9042068895535351e+00  -7.9018764893054838e+00  -7.9014234395291751e+00  -8.0619925072502063e+00  -8.0615212758228427e+00  -8.0589071700632484e+00  -8.0541493524209802e+00  -8.0473633457732294e+00  -8.0387305437562215e+00  -8.0284834868214521e+00  -8.0168969539432631e+00  -8.0042796683713782e+00  -7.9909658059219710e+00  -7.9773062870045939e+00  -7.9636599417577898e+00  -7.9503846224116748e+00  -7.9378283179191005e+00  -7.9263203307044243e+00  -7.9161626012359179e+00  -7.9076212748251908e+00  -7.9009184459124659e+00  -7.8962230480788556e+00  -7.8936350712028478e+00  -7.8931320711395871e+00  -8.0715845122146774e+00  -8.0710594236817563e+00  -8.0681490206657358e+00  -8.0628530936564236e+00  -8.0553012564137241e+00  -8.0456965694837237e+00  -8.0342988681737300e+00  -8.0214145315277126e+00  -8.0073870272293650e+00  -7.9925874071996752e+00  -7.9774047508879669e+00  -7.9622366202144406e+00  -7.9474795359928159e+00  -7.9335194467262173e+00  -7.9207221681248212e+00  -7.9094238215969961e+00  -7.8999213477733949e+00  -7.8924630444775294e+00  -7.8872380549238716e+00  -7.8843584366103716e+00  -7.8837993855609287e+00  -8.0822845854799894e+00  -8.0816983084552945e+00  -8.0784546511149919e+00  -8.0725548744716296e+00  -8.0641453952538900e+00  -8.0534544945367621e+00  -8.0407732427625067e+00  -8.0264436471922007e+00  -8.0108478426592153e+00  -7.9943974853545630e+00  -7.9775233559560821e+00  -7.9606651881446915e+00  -7.9442616310796144e+00  -7.9287401877373469e+00  -7.9145069818694687e+00  -7.9019362897921583e+00  -7.8913598766448025e+00  -7.8830561010090010e+00  -7.8772376782967122e+00  -7.8740311368817650e+00  -7.8734097797084726e+00  -8.0941054756087372e+00  -8.0934503085234528e+00  -8.0898349664341769e+00  -8.0832632893935514e+00  -8.0739016992035797e+00  -8.0620078195734948e+00  -8.0479083967162417e+00  -8.0319854035059102e+00  -8.0146636139975520e+00  -7.9963988031454862e+00  -7.9776665750214830e+00  -7.9589517484176131e+00  -7.9407380481927055e+00  -7.9234977467185637e+00  -7.9076809151881289e+00  -7.8937040737023967e+00  -7.8819382107326854e+00  -7.8726961473175656e+00  -7.8662181211520252e+00  -7.8626480118816922e+00  -7.8619579175620897e+00  -8.1070440577286789e+00  -8.1063118715687352e+00  -8.1022848110691861e+00  -8.0949708545663857e+00  -8.0845603770081649e+00  -8.0713452814970559e+00  -8.0556931026427545e+00  -8.0380304811143883e+00  -8.0188287762473269e+00  -7.9985909869207905e+00  -7.9778399577832353e+00  -7.9571076497392283e+00  -7.9369249747825199e+00  -7.9178115427156959e+00  -7.9002646885812293e+00  -7.8847473387913585e+00  -7.8716745631532516e+00  -7.8613987889189278e+00  -7.8541925710424323e+00  -7.8502207479392840e+00  -7.8494552911546123e+00  -8.1210734445136215e+00  -8.1202556194523527e+00  -8.1157750412206386e+00  -8.1076460964726351e+00  -8.0960881823770308e+00  -8.0814335996623754e+00  -8.0640967105431329e+00  -8.0445539686589864e+00  -8.0233271224825184e+00  -8.0009688013967732e+00  -7.9780503887671266e+00  -7.9551517126485338e+00  -7.9328516799343172e+00  -7.9117187680667946e+00  -7.8923003165530687e+00  -7.8751098233105008e+00  -7.8606118807984569e+00  -7.8492046988882418e+00  -7.8411991726471335e+00  -7.8367858008677951e+00  -7.8359381315591996e+00  -8.1361334169960067e+00  -8.1352207553142719e+00  -8.1302428107415405e+00  -8.1212237480116567e+00  -8.1084187393600935e+00  -8.0922083254995822e+00  -8.0730610267397651e+00  -8.0515087969725219e+00  -8.0281272555169672e+00  -8.0035199531563297e+00  -7.9783064095474039e+00  -7.9531130521230358e+00  -7.9285656350404654e+00  -7.9052814417604553e+00  -7.8838596093256728e+00  -7.8648682543054687e+00  -7.8488276788978304e+00  -7.8361895013648173e+00  -7.8273107744014423e+00  -7.8224140022479274e+00  -7.8214769817038965e+00  -8.1521188137072276e+00  -8.1511014005025473e+00  -8.1455796443691497e+00  -8.1355925594532117e+00  -8.1214403864614670e+00  -8.1035622702579229e+00  -8.0824900156399853e+00  -8.0588174111246609e+00  -8.0331768218580830e+00  -8.0062223026567523e+00  -7.9786186135314558e+00  -7.9510346347461027e+00  -7.9241389877752466e+00  -7.8985953447041730e+00  -7.8750549454528054e+00  -7.8541442451461645e+00  -7.8364463815470611e+00  -7.8224760388400583e+00  -7.8126468753539893e+00  -7.8072222232169874e+00  -7.8061882942219079e+00  -8.1688654505694185e+00  -8.1677324146586070e+00  -8.1616167670800355e+00  -8.1505801000154232e+00  -8.1349808734657980e+00  -8.1153308814679885e+00  -8.0922367987777406e+00  -8.0663612932607105e+00  -8.0383952825592413e+00  -8.0090403685461471e+00  -7.9790001165029700e+00  -7.9489776966784405e+00  -7.9196766538507362e+00  -7.8918012525555126e+00  -7.8660528736989130e+00  -7.8431193324033277e+00  -7.8236548515679392e+00  -7.8082496540588515e+00  -7.7973883069916132e+00  -7.7913875506478059e+00  -7.7902484917064418e+00  -8.1861330431077768e+00  -8.1848721370316522e+00  -8.1781069951200482e+00  -8.1659337310462163e+00  -8.1487880712613361e+00  -8.1272738350127263e+00  -8.1020874072104601e+00  -8.0739679936692959e+00  -8.0436650384486583e+00  -8.0119210455185996e+00  -7.9794670937633461e+00  -7.9470270911303276e+00  -7.9153262203489652e+00  -7.8850988451422745e+00  -7.8570911416634219e+00  -7.8320539388744006e+00  -7.8107219869752917e+00  -7.7937773232276015e+00  -7.7817953551586836e+00  -7.7751645578536683e+00  -7.7739110439359802e+00  -8.2035844333958572e+00  -8.2021812905268501e+00  -8.1947022198680717e+00  -8.1812966292839917e+00  -8.1625056306881145e+00  -8.1390520426893254e+00  -8.1117408372674991e+00  -8.0813955172219458e+00  -8.0488209169191993e+00  -8.0147885616086203e+00  -7.9800393491156321e+00  -7.9452974860289949e+00  -7.9112896431856683e+00  -7.8787634900865067e+00  -7.8484996905175217e+00  -7.8213111657190524e+00  -7.7980235280146157e+00  -7.7794318032459397e+00  -7.7662303138446207e+00  -7.7589064693576155e+00  -7.7575273171975807e+00  -8.2207601209217334e+00  -8.2191969301602921e+00  -8.2109250246317202e+00  -8.1961772494191401e+00  -8.1756422511380809e+00  -8.1501993309544041e+00  -8.1207853047742695e+00  -8.0883143912731015e+00  -8.0536384546448030e+00  -8.0175389279116001e+00  -7.9807408330363794e+00  -7.9439400215623550e+00  -7.9078362449526365e+00  -7.8731656227284894e+00  -7.8407258691027018e+00  -7.8113863546993700e+00  -7.7860735826205172e+00  -7.7657224950447485e+00  -7.7511859730928467e+00  -7.7430914130980124e+00  -7.7415723143813748e+00  -8.2370465305247933e+00  -8.2352996242378094e+00  -8.2261320537298364e+00  -8.2099098069242640e+00  -8.1875329349642527e+00  -8.1600884228771946e+00  -8.1286714538507443e+00  -8.0942887523037683e+00  -8.0578222455346467e+00  -8.0200345637874690e+00  -7.9815999453837039e+00  -7.9431484574575304e+00  -7.9053155812939115e+00  -7.8687914133917785e+00  -7.8343633465268114e+00  -7.8029431588533926e+00  -7.7755648485722872e+00  -7.7533356450990620e+00  -7.7373224938828997e+00  -7.7283556975838907e+00  -7.7266771101960670e+00  -8.2516353668050026e+00  -8.2496706598417564e+00  -8.2394649672055333e+00  -8.2216020407720620e+00  -8.1972904966614593e+00  -8.1678919952064835e+00  -8.1346851360298214e+00  -8.0987597074792799e+00  -8.0609970927471721e+00  -8.0221005111449983e+00  -7.9826493314919968e+00  -7.9431628642878280e+00  -7.9041670695850668e+00  -7.8662613973215931e+00  -7.8301824360487711e+00  -7.7968560230192034e+00  -7.7674200101878528e+00  -7.7431880960541726e+00  -7.7255169606516869e+00  -7.7155375087751192e+00  -7.7136711220554357e+00  -8.2634692861603671e+00  -8.2612331043481930e+00  -8.2497812687806569e+00  -8.2300645027574753e+00  -8.2037462956264342e+00  -8.1725424503295141e+00  -8.1379260590984472e+00  -8.1010375511075505e+00  -8.0627070269763568e+00  -8.0235247530411016e+00  -7.9839247133367222e+00  -7.9442674558819206e+00  -7.9049205683529031e+00  -7.8663401095263561e+00  -7.8291558371301253e+00  -7.7942565646870623e+00  -7.7628569135922660e+00  -7.7365015022772461e+00  -7.7169335849324838e+00  -7.7057373928851245e+00  -7.7036400585840514e+00  -8.2711648772095661e+00  -8.2685638569550637e+00  -8.2555502048274700e+00  -8.2337132183691430e+00  -8.2053825389436490e+00  -8.1727006358017213e+00  -8.1373053606198535e+00  -8.1003145891395611e+00  -8.0624304282238715e+00  -8.0240665474319002e+00  -7.9854621336395102e+00  -7.9467773456431994e+00  -7.9081782802328151e+00  -7.8699237891125069e+00  -7.8324664889460331e+00  -7.7965751432546053e+00  -7.7634683836110128e+00  -7.7349082296028877e+00  -7.7131301908308600e+00  -7.7004082981524853e+00  -7.6980111344097715e+00  -8.2728951160731210e+00  -8.2697474009449277e+00  -8.2546851903986429e+00  -8.2304374832238221e+00  -8.2002696245176967e+00  -8.1667578063721198e+00  -8.1315863732719755e+00  -8.0957171253447182e+00  -8.0596227838391261e+00  -8.0234778975891334e+00  -7.9872929414495140e+00  -7.9510075048503674e+00  -7.9145641771555955e+00  -7.8779847023486917e+00  -7.8414708517593397e+00  -7.8055538805914733e+00  -7.7713088848827407e+00  -7.7406054666405266e+00  -7.7162331088099441e+00  -7.7015029405798519e+00  -7.6986903151665613e+00  -8.2661930329321631e+00  -8.2620983387238560e+00  -8.2442612352053999e+00  -8.2174386903957775e+00  -8.1860531382032242e+00  -8.1529222278619713e+00  -8.1195084170595031e+00  -8.0864211541959978e+00  -8.0537996386000810e+00  -8.0215430075850698e+00  -7.9894360404083145e+00  -7.9572176109110639e+00  -7.9246253368533521e+00  -7.8914418799210013e+00  -7.8575697804905404e+00  -7.8231736703749810e+00  -7.7889486811401722e+00  -7.7565719132738291e+00  -7.7292488097263252e+00  -7.7117455533327695e+00  -7.7083101455482224e+00  -8.2475734247374994e+00  -8.2415595584863546e+00  -8.2200492627978683e+00  -8.1911157362455462e+00  -8.1601105492210575e+00  -8.1294849617795002e+00  -8.1000465919489120e+00  -8.0718538004750666e+00  -8.0446657279916991e+00  -8.0181361669718303e+00  -7.9918870848221788e+00  -7.9655311287856279e+00  -7.9386758099130317e+00  -7.9109277565279523e+00  -7.8819163536659671e+00  -7.8513739745165649e+00  -7.8193583120939714e+00  -7.7868025554971840e+00  -7.7566497904953051e+00  -7.7352150668824224e+00  -7.7307476567738584e+00  -8.2115744975287530e+00  -8.2012834205056535e+00  -8.1759162089058766e+00  -8.1473123109321666e+00  -8.1201432628686376e+00  -8.0953982569046783e+00  -8.0728455334974907e+00  -8.0519741815048178e+00  -8.0322727209175877e+00  -8.0132850916275356e+00  -7.9946019800255357e+00  -7.9758360402202566e+00  -7.9565936080876360e+00  -7.9364450827098549e+00  -7.9148956979830505e+00  -7.8913684338139332e+00  -7.8652510155141133e+00  -7.8362007572521239e+00  -7.8053621379122582e+00  -7.7788672495384317e+00  -7.7724202477189568e+00  -8.1470719911104332e+00  -8.1284218947277562e+00  -8.1039818031484927e+00  -8.0828516571850617e+00  -8.0656162177312556e+00  -8.0512293154601764e+00  -8.0387550907476957e+00  -8.0275396433774215e+00  -8.0171295478949265e+00  -8.0071906606291385e+00  -7.9974530722560928e+00  -7.9876734179072617e+00  -7.9776045607673760e+00  -7.9669642172913893e+00  -7.9553932382864883e+00  -7.9423897603936142e+00  -7.9271984744502237e+00  -7.9086499786331288e+00  -7.8851762776236232e+00  -7.8571001387176134e+00  -7.8465913041125326e+00  -8.0000000000000000e+00  -8.0000000000000000e+00  -8.0000000000000000e+00  -8.0000000000000000e+00  -8.0000000000000000e+00  -8.0000000000000000e+00  -8.0000000000000000e+00  -8.0000000000000000e+00  -8.0000000000000000e+00  -8.0000000000000000e+00  -8.0000000000000000e+00  -8.0000000000000000e+00  -8.0000000000000000e+00  -8.0000000000000000e+00  -8.0000000000000000e+00  -8.0000000000000000e+00  -8.0000000000000000e+00  -8.0000000000000000e+00  -8.0000000000000000e+00  -8.0000000000000000e+00  -8.0000000000000000e+00  </DataArray> 
</PointData> 
</Piece>
</UnstructuredGrid>
</VTKFile>