<?xml version="1.0"?>
<VTKFile type="UnstructuredGrid"  version="0.1"  >
<UnstructuredGrid>
<Piece  NumberOfPoints="651" NumberOfCells="1200">
<Points>
<DataArray  type="Float64"  NumberOfComponents="3"  format="ascii">0 0 0  50000 0 0  100000 0 0  150000 0 0  200000 0 0  250000 0 0  300000 0 0  350000 0 0  400000 0 0  450000 0 0  500000 0 0  550000 0 0  600000 0 0  650000 0 0  700000 0 0  750000 0 0  800000 0 0  850000 0 0  900000 0 0  950000 0 0  1000000 0 0  0 50000 0  50000 50000 0  100000 50000 0  150000 50000 0  200000 50000 0  250000 50000 0  300000 50000 0  350000 50000 0  400000 50000 0  450000 50000 0  500000 50000 0  550000 50000 0  600000 50000 0  650000 50000 0  700000 50000 0  750000 50000 0  800000 50000 0  850000 50000 0  900000 50000 0  950000 50000 0  1000000 50000 0  0 100000 0  50000 100000 0  100000 100000 0  150000 100000 0  200000 100000 0  250000 100000 0  300000 100000 0  350000 100000 0  400000 100000 0  450000 100000 0  500000 100000 0  550000 100000 0  600000 100000 0  650000 100000 0  700000 100000 0  750000 100000 0  800000 100000 0  850000 100000 0  900000 100000 0  950000 100000 0  1000000 100000 0  0 150000 0  50000 150000 0  100000 150000 0  150000 150000 0  200000 150000 0  250000 150000 0  300000 150000 0  350000 150000 0  400000 150000 0  450000 150000 0  500000 150000 0  550000 150000 0  600000 150000 0  650000 150000 0  700000 150000 0  750000 150000 0  800000 150000 0  850000 150000 0  900000 150000 0  950000 150000 0  1000000 150000 0  0 200000 0  50000 200000 0  100000 200000 0  150000 200000 0  200000 200000 0  250000 200000 0  300000 200000 0  350000 200000 0  400000 200000 0  450000 200000 0  500000 200000 0  550000 200000 0  600000 200000 0  650000 200000 0  700000 200000 0  750000 200000 0  800000 200000 0  850000 200000 0  900000 200000 0  950000 200000 0  1000000 200000 0  0 250000 0  50000 250000 0  100000 250000 0  150000 250000 0  200000 250000 0  250000 250000 0  300000 250000 0  350000 250000 0  400000 250000 0  450000 250000 0  500000 250000 0  550000 250000 0  600000 250000 0  650000 250000 0  700000 250000 0  750000 250000 0  800000 250000 0  850000 250000 0  900000 250000 0  950000 250000 0  1000000 250000 0  0 300000 0  50000 300000 0  100000 300000 0  150000 300000 0  200000 300000 0  250000 300000 0  300000 300000 0  350000 300000 0  400000 300000 0  450000 300000 0  500000 300000 0  550000 300000 0  600000 300000 0  650000 300000 0  700000 300000 0  750000 300000 0  800000 300000 0  850000 300000 0  900000 300000 0  950000 300000 0  1000000 300000 0  0 350000 0  50000 350000 0  100000 350000 0  150000 350000 0  200000 350000 0  250000 350000 0  300000 350000 0  350000 350000 0  400000 350000 0  450000 350000 0  500000 350000 0  550000 350000 0  600000 350000 0  650000 350000 0  700000 350000 0  750000 350000 0  800000 350000 0  850000 350000 0  900000 350000 0  950000 350000 0  1000000 350000 0  0 400000 0  50000 400000 0  100000 400000 0  150000 400000 0  200000 400000 0  250000 400000 0  300000 400000 0  350000 400000 0  400000 400000 0  450000 400000 0  500000 400000 0  550000 400000 0  600000 400000 0  650000 400000 0  700000 400000 0  750000 400000 0  800000 400000 0  850000 400000 0  900000 400000 0  950000 400000 0  1000000 400000 0  0 450000 0  50000 450000 0  100000 450000 0  150000 450000 0  200000 450000 0  250000 450000 0  300000 450000 0  350000 450000 0  400000 450000 0  450000 450000 0  500000 450000 0  550000 450000 0  600000 450000 0  650000 450000 0  700000 450000 0  750000 450000 0  800000 450000 0  850000 450000 0  900000 450000 0  950000 450000 0  1000000 450000 0  0 500000 0  50000 500000 0  100000 500000 0  150000 500000 0  200000 500000 0  250000 500000 0  300000 500000 0  350000 500000 0  400000 500000 0  450000 500000 0  500000 500000 0  550000 500000 0  600000 500000 0  650000 500000 0  700000 500000 0  750000 500000 0  800000 500000 0  850000 500000 0  900000 500000 0  950000 500000 0  1000000 500000 0  0 550000 0  50000 550000 0  100000 550000 0  150000 550000 0  200000 550000 0  250000 550000 0  300000 550000 0  350000 550000 0  400000 550000 0  450000 550000 0  500000 550000 0  550000 550000 0  600000 550000 0  650000 550000 0  700000 550000 0  750000 550000 0  800000 550000 0  850000 550000 0  900000 550000 0  950000 550000 0  1000000 550000 0  0 600000 0  50000 600000 0  100000 600000 0  150000 600000 0  200000 600000 0  250000 600000 0  300000 600000 0  350000 600000 0  400000 600000 0  450000 600000 0  500000 600000 0  550000 600000 0  600000 600000 0  650000 600000 0  700000 600000 0  750000 600000 0  800000 600000 0  850000 600000 0  900000 600000 0  950000 600000 0  1000000 600000 0  0 650000 0  50000 650000 0  100000 650000 0  150000 650000 0  200000 650000 0  250000 650000 0  300000 650000 0  350000 650000 0  400000 650000 0  450000 650000 0  500000 650000 0  550000 650000 0  600000 650000 0  650000 650000 0  700000 650000 0  750000 650000 0  800000 650000 0  850000 650000 0  900000 650000 0  950000 650000 0  1000000 650000 0  0 700000 0  50000 700000 0  100000 700000 0  150000 700000 0  200000 700000 0  250000 700000 0  300000 700000 0  350000 700000 0  400000 700000 0  450000 700000 0  500000 700000 0  550000 700000 0  600000 700000 0  650000 700000 0  700000 700000 0  750000 700000 0  800000 700000 0  850000 700000 0  900000 700000 0  950000 700000 0  1000000 700000 0  0 750000 0  50000 750000 0  100000 750000 0  150000 750000 0  200000 750000 0  250000 750000 0  300000 750000 0  350000 750000 0  400000 750000 0  450000 750000 0  500000 750000 0  550000 750000 0  600000 750000 0  650000 750000 0  700000 750000 0  750000 750000 0  800000 750000 0  850000 750000 0  900000 750000 0  950000 750000 0  1000000 750000 0  0 800000 0  50000 800000 0  100000 800000 0  150000 800000 0  200000 800000 0  250000 800000 0  300000 800000 0  350000 800000 0  400000 800000 0  450000 800000 0  500000 800000 0  550000 800000 0  600000 800000 0  650000 800000 0  700000 800000 0  750000 800000 0  800000 800000 0  850000 800000 0  900000 800000 0  950000 800000 0  1000000 800000 0  0 850000 0  50000 850000 0  100000 850000 0  150000 850000 0  200000 850000 0  250000 850000 0  300000 850000 0  350000 850000 0  400000 850000 0  450000 850000 0  500000 850000 0  550000 850000 0  600000 850000 0  650000 850000 0  700000 850000 0  750000 850000 0  800000 850000 0  850000 850000 0  900000 850000 0  950000 850000 0  1000000 850000 0  0 900000 0  50000 900000 0  100000 900000 0  150000 900000 0  200000 900000 0  250000 900000 0  300000 900000 0  350000 900000 0  400000 900000 0  450000 900000 0  500000 900000 0  550000 900000 0  600000 900000 0  650000 900000 0  700000 900000 0  750000 900000 0  800000 900000 0  850000 900000 0  900000 900000 0  950000 900000 0  1000000 900000 0  0 950000 0  50000 950000 0  100000 950000 0  150000 950000 0  200000 950000 0  250000 950000 0  300000 950000 0  350000 950000 0  400000 950000 0  450000 950000 0  500000 950000 0  550000 950000 0  600000 950000 0  650000 950000 0  700000 950000 0  750000 950000 0  800000 950000 0  850000 950000 0  900000 950000 0  950000 950000 0  1000000 950000 0  0 1000000 0  50000 1000000 0  100000 1000000 0  150000 1000000 0  200000 1000000 0  250000 1000000 0  300000 1000000 0  350000 1000000 0  400000 1000000 0  450000 1000000 0  500000 1000000 0  550000 1000000 0  600000 1000000 0  650000 1000000 0  700000 1000000 0  750000 1000000 0  800000 1000000 0  850000 1000000 0  900000 1000000 0  950000 1000000 0  1000000 1000000 0  0 1050000 0  50000 1050000 0  100000 1050000 0  150000 1050000 0  200000 1050000 0  250000 1050000 0  300000 1050000 0  350000 1050000 0  400000 1050000 0  450000 1050000 0  500000 1050000 0  550000 1050000 0  600000 1050000 0  650000 1050000 0  700000 1050000 0  750000 1050000 0  800000 1050000 0  850000 1050000 0  900000 1050000 0  950000 1050000 0  1000000 1050000 0  0 1100000 0  50000 1100000 0  100000 1100000 0  150000 1100000 0  200000 1100000 0  250000 1100000 0  300000 1100000 0  350000 1100000 0  400000 1100000 0  450000 1100000 0  500000 1100000 0  550000 1100000 0  600000 1100000 0  650000 1100000 0  700000 1100000 0  750000 1100000 0  800000 1100000 0  850000 1100000 0  900000 1100000 0  950000 1100000 0  1000000 1100000 0  0 1150000 0  50000 1150000 0  100000 1150000 0  150000 1150000 0  200000 1150000 0  250000 1150000 0  300000 1150000 0  350000 1150000 0  400000 1150000 0  450000 1150000 0  500000 1150000 0  550000 1150000 0  600000 1150000 0  650000 1150000 0  700000 1150000 0  750000 1150000 0  800000 1150000 0  850000 1150000 0  900000 1150000 0  950000 1150000 0  1000000 1150000 0  0 1200000 0  50000 1200000 0  100000 1200000 0  150000 1200000 0  200000 1200000 0  250000 1200000 0  300000 1200000 0  350000 1200000 0  400000 1200000 0  450000 1200000 0  500000 1200000 0  550000 1200000 0  600000 1200000 0  650000 1200000 0  700000 1200000 0  750000 1200000 0  800000 1200000 0  850000 1200000 0  900000 1200000 0  950000 1200000 0  1000000 1200000 0  0 1250000 0  50000 1250000 0  100000 1250000 0  150000 1250000 0  200000 1250000 0  250000 1250000 0  300000 1250000 0  350000 1250000 0  400000 1250000 0  450000 1250000 0  500000 1250000 0  550000 1250000 0  600000 1250000 0  650000 1250000 0  700000 1250000 0  750000 1250000 0  800000 1250000 0  850000 1250000 0  900000 1250000 0  950000 1250000 0  1000000 1250000 0  0 1300000 0  50000 1300000 0  100000 1300000 0  150000 1300000 0  200000 1300000 0  250000 1300000 0  300000 1300000 0  350000 1300000 0  400000 1300000 0  450000 1300000 0  500000 1300000 0  550000 1300000 0  600000 1300000 0  650000 1300000 0  700000 1300000 0  750000 1300000 0  800000 1300000 0  850000 1300000 0  900000 1300000 0  950000 1300000 0  1000000 1300000 0  0 1350000 0  50000 1350000 0  100000 1350000 0  150000 1350000 0  200000 1350000 0  250000 1350000 0  300000 1350000 0  350000 1350000 0  400000 1350000 0  450000 1350000 0  500000 1350000 0  550000 1350000 0  600000 1350000 0  650000 1350000 0  700000 135
[...]
<PointData  Vectors="f_5975"> 
<DataArray  type="Float64"  Name="f_5975"  NumberOfComponents="3" format="ascii">-3.2278644531611143e-10 2.7977982927263213e-10 0.0000000000000000e+00  -5.9592242062816062e-10 2.2586602439087683e-10 0.0000000000000000e+00  -1.0830427227621005e-09 2.0094840549929195e-10 0.0000000000000000e+00  -1.5548539797689457e-09 1.7898435136618404e-10 0.0000000000000000e+00  -1.9872218336726304e-09 1.5439739014088097e-10 0.0000000000000000e+00  -2.3672893950741058e-09 1.2644257883540897e-10 0.0000000000000000e+00  -2.6847037691023391e-09 9.5304747126086808e-11 0.0000000000000000e+00  -2.9311506313440650e-09 6.1516155006976100e-11 0.0000000000000000e+00  -3.1003066360521167e-09 2.5796448172037779e-11 0.0000000000000000e+00  -3.1879272374369092e-09 -1.1026274960360379e-11 0.0000000000000000e+00  -3.1919238528321310e-09 -4.8064223702297112e-11 0.0000000000000000e+00  -3.1123995824405339e-09 -8.4406494294538622e-11 0.0000000000000000e+00  -2.9516373599713644e-09 -1.1915097312992537e-10 0.0000000000000000e+00  -2.7140402209048951e-09 -1.5143534955668288e-10 0.0000000000000000e+00  -2.4060345314279751e-09 -1.8047133644724319e-10 0.0000000000000000e+00  -2.0360029267158692e-09 -2.0559419918461840e-10 0.0000000000000000e+00  -1.6145945619630031e-09 -2.2637284317246505e-10 0.0000000000000000e+00  -1.1570019471897610e-09 -2.4290989840384397e-10 0.0000000000000000e+00  -6.9368892422651590e-10 -2.5543950197838358e-10 0.0000000000000000e+00  -3.1596544892995496e-10 -2.4584303532045300e-10 0.0000000000000000e+00  -1.5642780827728035e-10 -1.6091035670909093e-10 0.0000000000000000e+00  -2.7614823619996260e-10 5.2747626327484062e-10 0.0000000000000000e+00  -4.9179935001760437e-10 4.7908337549067465e-10 0.0000000000000000e+00  -8.7331496183315541e-10 4.9608729031287726e-10 0.0000000000000000e+00  -1.2975140078287504e-09 4.7330950675450608e-10 0.0000000000000000e+00  -1.7033058567862442e-09 4.3092243254181675e-10 0.0000000000000000e+00  -2.0695877737813506e-09 3.7471196461107861e-10 0.0000000000000000e+00  -2.3840767089829636e-09 3.0764816107300596e-10 0.0000000000000000e+00  -2.6375086835367772e-09 2.3207051368243304e-10 0.0000000000000000e+00  -2.8228218866408190e-09 1.5022528895786962e-10 0.0000000000000000e+00  -2.9350285081001334e-09 6.4391750006489774e-11 0.0000000000000000e+00  -2.9712134680349783e-09 -2.3108583326548754e-11 0.0000000000000000e+00  -2.9305482695929940e-09 -1.0994052874783319e-10 0.0000000000000000e+00  -2.8142849889585399e-09 -1.9379617835190059e-10 0.0000000000000000e+00  -2.6257213156680866e-09 -2.7243711887576258e-10 0.0000000000000000e+00  -2.3701449506543484e-09 -3.4372885861096657e-10 0.0000000000000000e+00  -2.0548018247505328e-09 -4.0565175083805367e-10 0.0000000000000000e+00  -1.6890668802550469e-09 -4.5623643928789312e-10 0.0000000000000000e+00  -1.2855842578151308e-09 -4.9313004416567350e-10 0.0000000000000000e+00  -8.6562145994517007e-10 -5.1096647277500405e-10 0.0000000000000000e+00  -4.8117487091305797e-10 -4.8917949952904286e-10 0.0000000000000000e+00  -2.4722980152426445e-10 -3.1100276819605985e-10 0.0000000000000000e+00  -2.7343098602800404e-10 9.6597190412594248e-10 0.0000000000000000e+00  -5.0097349250354589e-10 8.5322101997912369e-10 0.0000000000000000e+00  -8.6158940169593629e-10 8.6761231768151124e-10 0.0000000000000000e+00  -1.2491757192916124e-09 8.3403124619217005e-10 0.0000000000000000e+00  -1.6217207636293413e-09 7.6574818628892126e-10 0.0000000000000000e+00  -1.9604945696122359e-09 6.7134960294090888e-10 0.0000000000000000e+00  -2.2528799412800565e-09 5.5652507906204103e-10 0.0000000000000000e+00  -2.4895516134006279e-09 4.2579454613345009e-10 0.0000000000000000e+00  -2.6634877683878978e-09 2.8334976614044456e-10 0.0000000000000000e+00  -2.7697366830266403e-09 1.3334457001091862e-10 0.0000000000000000e+00  -2.8053724795688640e-09 -2.0039476121819936e-11 0.0000000000000000e+00  -2.7694851858285960e-09 -1.7261535570202783e-10 0.0000000000000000e+00  -2.6631638386484616e-09 -3.2024512565582870e-10 0.0000000000000000e+00  -2.4894604884809636e-09 -4.5889902043654241e-10 0.0000000000000000e+00  -2.2533402938819328e-09 -5.8469592703098132e-10 0.0000000000000000e+00  -1.9616538433853714e-09 -6.9388727365615744e-10 0.0000000000000000e+00  -1.6232693836392622e-09 -7.8269120493108252e-10 0.0000000000000000e+00  -1.2498882491487734e-09 -8.4671848914400098e-10 0.0000000000000000e+00  -8.5955425033779617e-10 -8.7927519788149554e-10 0.0000000000000000e+00  -4.9365915691834495e-10 -8.6722639343832021e-10 0.0000000000000000e+00  -2.5997077312534385e-10 -6.6391847726710121e-10 0.0000000000000000e+00  -2.8509713450155863e-10 1.3971434406397634e-09 0.0000000000000000e+00  -4.9868285886735089e-10 1.2629435197937212e-09 0.0000000000000000e+00  -8.5136199135361802e-10 1.2563395729962508e-09 0.0000000000000000e+00  -1.2246499062191757e-09 1.2037203023890735e-09 0.0000000000000000e+00  -1.5793540269228105e-09 1.1069994086299907e-09 0.0000000000000000e+00  -1.9005952806529184e-09 9.7349234905397467e-10 0.0000000000000000e+00  -2.1777821111375119e-09 8.1012492365976589e-10 0.0000000000000000e+00  -2.4023319561487587e-09 6.2321144802879976e-10 0.0000000000000000e+00  -2.5675396540930579e-09 4.1884008095240063e-10 0.0000000000000000e+00  -2.6686014281326807e-09 2.0308396835981499e-10 0.0000000000000000e+00  -2.7026380245239008e-09 -1.7946444324950839e-11 0.0000000000000000e+00  -2.6687029066601868e-09 -2.3813947149159031e-10 0.0000000000000000e+00  -2.5677667210415784e-09 -4.5145815498724540e-10 0.0000000000000000e+00  -2.4026738484921531e-09 -6.5202567514315109e-10 0.0000000000000000e+00  -2.1780714982280213e-09 -8.3419575302395835e-10 0.0000000000000000e+00  -1.9003261999819350e-09 -9.9258019041313941e-10 0.0000000000000000e+00  -1.5775072617621007e-09 -1.1219997955025894e-09 0.0000000000000000e+00  -1.2198388226627522e-09 -1.2173500393778906e-09 0.0000000000000000e+00  -8.4266170089949645e-10 -1.2733503581132330e-09 0.0000000000000000e+00  -4.8469555922907869e-10 -1.2823005301234082e-09 0.0000000000000000e+00  -2.6153684147312724e-10 -1.0926906622657756e-09 0.0000000000000000e+00  -3.0438528099184274e-10 1.8186073050126280e-09 0.0000000000000000e+00  -4.9926620279699699e-10 1.6728260672014033e-09 0.0000000000000000e+00  -8.4653743404704131e-10 1.6453527530845292e-09 0.0000000000000000e+00  -1.2146518316421450e-09 1.5689993202060413e-09 0.0000000000000000e+00  -1.5620845809047228e-09 1.4417647494924923e-09 0.0000000000000000e+00  -1.8749009150199217e-09 1.2690882428071584e-09 0.0000000000000000e+00  -2.1438658107822760e-09 1.0581368813892190e-09 0.0000000000000000e+00  -2.3613277178704437e-09 8.1644800658550972e-10 0.0000000000000000e+00  -2.5210881883270827e-09 5.5173117313320523e-10 0.0000000000000000e+00  -2.6185972134774410e-09 2.7184476138097531e-10 0.0000000000000000e+00  -2.6510818337607882e-09 -1.5249017836472698e-11 0.0000000000000000e+00  -2.6175993076303630e-09 -3.0157232658686276e-10 0.0000000000000000e+00  -2.5190360281140840e-09 -5.7924878014321535e-10 0.0000000000000000e+00  -2.3580603818845135e-09 -8.4063263554312087e-10 0.0000000000000000e+00  -2.1390303633907061e-09 -1.0784373236252412e-09 0.0000000000000000e+00  -1.8678645864247800e-09 -1.2858591628945758e-09 0.0000000000000000e+00  -1.5519605298300146e-09 -1.4567171700884228e-09 0.0000000000000000e+00  -1.2006613915960233e-09 -1.5856857355077686e-09 0.0000000000000000e+00  -8.2880177413180748e-10 -1.6684830593078392e-09 0.0000000000000000e+00  -4.7724812742401743e-10 -1.6988516984520091e-09 0.0000000000000000e+00  -2.7102594627315165e-10 -1.5257272635408753e-09 0.0000000000000000e+00  -3.2999342770997663e-10 2.2356745632928981e-09 0.0000000000000000e+00  -5.0539573167456184e-10 2.0807948758094013e-09 0.0000000000000000e+00  -8.4956571001952013e-10 2.0346497154291180e-09 0.0000000000000000e+00  -1.2174769915730680e-09 1.9329228032119353e-09 0.0000000000000000e+00  -1.5640923213879405e-09 1.7734162667446266e-09 0.0000000000000000e+00  -1.8749384521941669e-09 1.5607755523946394e-09 0.0000000000000000e+00  -2.1412132678083000e-09 1.3022991672693839e-09 0.0000000000000000e+00  -2.3558376304927726e-09 1.0064389543343910e-09 0.0000000000000000e+00  -2.5130461700274254e-09 6.8228567168809062e-10 0.0000000000000000e+00  -2.6085573884922604e-09 3.3932446439082538e-10 0.0000000000000000e+00  -2.6397368987853102e-09 -1.2738703528668255e-11 0.0000000000000000e+00  -2.6056816345919998e-09 -3.6414423882426767e-10 0.0000000000000000e+00  -2.5072351140444140e-09 -7.0525523609948379e-10 0.0000000000000000e+00  -2.3469448878254408e-09 -1.0267443750318649e-09 0.0000000000000000e+00  -2.1289672287308810e-09 -1.3197928614376730e-09 0.0000000000000000e+00  -1.8589379481687991e-09 -1.5763121381424941e-09 0.0000000000000000e+00  -1.5439328541735213e-09 -1.7892188007578693e-09 0.0000000000000000e+00  -1.1931503895381553e-09 -1.9527986540387177e-09 0.0000000000000000e+00  -8.2218028215021160e-10 -2.0628046995204381e-09 0.0000000000000000e+00  -4.7525929809981854e-10 -2.1126395716712392e-09 0.0000000000000000e+00  -2.8737032298882890e-10 -1.9522027862415644e-09 0.0000000000000000e+00  -3.6149182614177267e-10 2.6531028238048733e-09 0.0000000000000000e+00  -5.1694570362679059e-10 2.4900208205435110e-09 0.0000000000000000e+00  -8.6023953747351376e-10 2.4267405834951577e-09 0.0000000000000000e+00  -1.2312567785591151e-09 2.2993850890121359e-09 0.0000000000000000e+00  -1.5810859512877036e-09 2.1064216837133803e-09 0.0000000000000000e+00  -1.8941872050040978e-09 1.8527076452325048e-09 0.0000000000000000e+00  -2.1616314741932811e-09 1.5459869587266436e-09 0.0000000000000000e+00  -2.3765384681833217e-09 1.1956108767559060e-09 0.0000000000000000e+00  -2.5333986388181377e-09 8.1194605577890654e-10 0.0000000000000000e+00  -2.6281383918569039e-09 4.0599722726733033e-10 0.0000000000000000e+00  -2.6582575608100974e-09 -1.0876294169204338e-11 0.0000000000000000e+00  -2.6229151744708472e-09 -4.2720904496563122e-10 0.0000000000000000e+00  -2.5229532644256697e-09 -8.3167015051153659e-10 0.0000000000000000e+00  -2.3608652134328623e-09 -1.2133104979549909e-09 0.0000000000000000e+00  -2.1407168854475921e-09 -1.5618274370337650e-09 0.0000000000000000e+00  -1.8680521624493063e-09 -1.8678609013280104e-09 0.0000000000000000e+00  -1.5499416618329616e-09 -2.1233372347901439e-09 0.0000000000000000e+00  -1.1958966762081855e-09 -2.3218417705116523e-09 0.0000000000000000e+00  -8.2274290357706086e-10 -2.4585592642175886e-09 0.0000000000000000e+00  -4.7846804777074318e-10 -2.5260307971646991e-09 0.0000000000000000e+00  -3.0954598638946153e-10 -2.3743167742328925e-09 0.0000000000000000e+00  -3.9873280831887926e-10 3.0744155135743743e-09 0.0000000000000000e+00  -5.3293793339893322e-10 2.9036576425869413e-09 0.0000000000000000e+00  -8.7685744086018851e-10 2.8242517898138992e-09 0.0000000000000000e+00  -1.2531184367427600e-09 2.6712743252700159e-09 0.0000000000000000e+00  -1.6085686229969755e-09 2.4440142536798087e-09 0.0000000000000000e+00  -1.9264265317802019e-09 2.1480574791716701e-09 0.0000000000000000e+00  -2.1973839982977208e-09 1.7919453104630272e-09 0.0000000000000000e+00  -2.4145269448477126e-09 1.3860652557914989e-09 0.0000000000000000e+00  -2.5724509098391161e-09 9.4207277044526302e-10 0.0000000000000000e+00  -2.6672183273129390e-09 4.7245368443153350e-10 0.0000000000000000e+00  -2.6964432530353600e-09 -9.8333867199194915e-12 0.0000000000000000e+00  -2.6593570316346454e-09 -4.9167089994468653e-10 0.0000000000000000e+00  -2.5568315628826397e-09 -9.6007875498885125e-10 0.0000000000000000e+00  -2.3913613337889672e-09 -1.4025130819654186e-09 0.0000000000000000e+00  -2.1670128448956231e-09 -1.8071833816662610e-09 0.0000000000000000e+00  -1.8893798848434612e-09 -2.1634000366983346e-09 0.0000000000000000e+00  -1.5657239923577688e-09 -2.4619534687371013e-09 0.0000000000000000e+00  -1.2060864026175942e-09 -2.6954750148776084e-09 0.0000000000000000e+00  -8.2871020428423545e-10 -2.8582930168718195e-09 0.0000000000000000e+00  -4.8569878018262931e-10 -2.9419923310642273e-09 0.0000000000000000e+00  -3.3709580573267831e-10 -2.7959501295044518e-09 0.0000000000000000e+00  -4.4171829990627928e-10 3.5015908149120828e-09 0.0000000000000000e+00  -5.5202744554713634e-10 3.3238409615411774e-09 0.0000000000000000e+00  -8.9690762904845635e-10 3.2289509155074903e-09 0.0000000000000000e+00  -1.2793032285064473e-09 3.0502924239522700e-09 0.0000000000000000e+00  -1.6413645125399923e-09 2.7879923281366254e-09 0.0000000000000000e+00  -1.9649920847400071e-09 2.4486192431810861e-09 0.0000000000000000e+00  -2.2404186662387532e-09 2.0417824053827557e-09 0.0000000000000000e+00  -2.4606011706873035e-09 1.5790787730318177e-09 0.0000000000000000e+00  -2.6201668115841354e-09 1.0735291027061268e-09 0.0000000000000000e+00  -2.7152758215156316e-09 5.3911175121097458e-10 0.0000000000000000e+00  -2.7436460370089611e-09 -9.6388335175732021e-12 0.0000000000000000e+00  -2.7045866750810176e-09 -5.5798836534096965e-10 0.0000000000000000e+00  -2.5990145355216533e-09 -1.0913362396723743e-09 0.0000000000000000e+00  -2.4294509734612352e-09 -1.5955493439355850e-09 0.0000000000000000e+00  -2.2000062515049722e-09 -2.0573157068968003e-09 0.0000000000000000e+00  -1.9163899605974838e-09 -2.4645291637401649e-09 0.0000000000000000e+00  -1.5861376246720379e-09 -2.8066984346563060e-09 0.0000000000000000e+00  -1.2199020374447910e-09 -3.0753196334324454e-09 0.0000000000000000e+00  -8.3744703249310152e-10 -3.2637287475776139e-09 0.0000000000000000e+00  -4.9544492939416055e-10 -3.3625697873392735e-09 0.0000000000000000e+00  -3.6981508442016763e-10 -3.2200461131262788e-09 0.0000000000000000e+00  -4.9053785146700635e-10 3.9348582001266931e-09 0.0000000000000000e+00  -5.7260476602536430e-10 3.7512832331159517e-09 0.0000000000000000e+00  -9.1727327961000265e-10 3.6413173126573762e-09 0.0000000000000000e+00  -1.3052186961851621e-09 3.4367993151151894e-09 0.0000000000000000e+00  -1.6733838550167032e-09 3.1387145455667913e-09 0.0000000000000000e+00  -2.0023011182537639e-09 2.7547755062179267e-09 0.0000000000000000e+00  -2.2817592730446037e-09 2.2958653731448436e-09 0.0000000000000000e+00  -2.5045990954437741e-09 1.7749574627189506e-09 0.0000000000000000e+00  -2.6654928682379992e-09 1.2065346890075478e-09 0.0000000000000000e+00  -2.7607164944025781e-09 6.0609961267364226e-10 0.0000000000000000e+00  -2.7881088296580962e-09 -1.0250969467362015e-11 0.0000000000000000e+00  -2.7470655153674523e-09 -6.2620006367993601e-10 0.0000000000000000e+00  -2.6385438868658454e-09 -1.2255562932017511e-09 0.0000000000000000e+00  -2.4650771660348865e-09 -1.7926001773801779e-09 0.0000000000000000e+00  -2.2308009438448896e-09 -2.3124568959347170e-09 0.0000000000000000e+00  -1.9415261422733746e-09 -2.7715102255114492e-09 0.0000000000000000e+00  -1.6050549645156934e-09 -3.1578502408119279e-09 0.0000000000000000e+00  -1.2326583985481653e-09 -3.4616921480867682e-09 0.0000000000000000e+00  -8.4570951828148565e-10 -3.6752903280316249e-09 0.0000000000000000e+00  -5.0595939278436889e-10 -3.7883724480008262e-09 0.0000000000000000e+00  -4.0762818623401466e-10 -3.6479919344263035e-09 0.0000000000000000e+00  -5.4533443527660902e-10 4.3724527034263233e-09 0.0000000000000000e+00  -5.9277763962833072e-10 4.1849631915789794e-09 0.0000000000000000e+00  -9.3422169166658198e-10 4.0602130704445279e-09 0.0000000000000000e+00  -1.3253529617628711e-09 3.8295742199267877e-09 0.0000000000000000e+00  -1.6973798563265039e-09 3.4949680548673249e-09 0.0000000000000000e+00  -2.0294347332797458e-09 3.0654030693635726e-09 0.0000000000000000e+00  -2.3109464941146479e-09 2.5532212282060399e-09 0.0000000000000000e+00  -2.5347453711037997e-09 1.9729297488493778e-09 0.0000000000000000e+00  -2.6956514131028365e-09 1.3405678232038794e-09 0.0000000000000000e+00  -2.7901427434629361e-09 6.7318635961142306e-10 0.0000000000000000e+00  -2.8162365358209529e-09 -1.1586570575042428e-11 0.0000000000000000e+00  -2.7734323447397682e-09 -6.9591060532180979e-10 0.0000000000000000e+00  -2.6627020439527466e-09 -1.3620596489196974e-09 0.0000000000000000e+00  -2.4865264726208121e-09 -1.9927510693035116e-09 0.0000000000000000e+00  -2.2489769441976362e-09 -2.5715163575338836e-09 0.0000000000000000e+00  -1.9558677140196616e-09 -3.0831377074332140e-09 0.0000000000000000e+00  -1.6151798081664781e-09 -3.5141479498111018e-09 0.0000000000000000e+00  -1.2387532489193751e-09 -3.8533325376655020e-09 0.0000000000000000e+00  -8.4964958894531441e-10 -4.0917630233408912e-09 0.0000000000000000e+00  -5.1522953622148053e-10 -4.2182517706186275e-09 0.0000000000000000e+00  -4.5053577031378993e-10 -4.0793607165056336e-09 0.0000000000000000e+00  -6.0628359808091131e-10 4.8102885158201467e-09 0.0000000000000000e+00  -6.1030568337189508e-10 4.6217913471479404e-09 0.0000000000000000e+00  -9.4329234714998609e-10 4.4825302756937604e-09 0.0000000000000000e+00  -1.3330856579177208e-09 4.2254921235098142e-09 0.0000000000000000e+00  -1.7046400611903260e-09 3.8536991337694005e-09 0.0000000000000000e+00  -2.0356870797704221e-09 3.3776480284664459e-09 0.0000000000000000e+00  -2.3154516997915629e-09 2.8113414143612910e-09 0.0000000000000000e+00  -2.5369560767457058e-09 2.1709798818282335e-09 0.0000000000000000e+00  -2.6953701487913973e-09 1.4742390961196540e-09 0.0000000000000000e+00  -2.7875429994255241e-09 7.3971001311002888e-10 0.0000000000000000e+00  -2.8117788545842424e-09 -1.3528599763039656e-11 0.0000000000000000e+00  -2.7677123868826597e-09 -7.6623195415745324e-10 0.0000000000000000e+00  -2.6562789095038812e-09 -1.4992544206121070e-09 0.0000000000000000e+00  -2.4797829883840938e-09 -2.1938211263329152e-09 0.0000000000000000e+00  -2.2420573348227011e-09 -2.8318670329820368e-09 0.0000000000000000e+00  -1.9487261551892392e-09 -3.3964859410071869e-09 0.0000000000000000e+00  -1.6077737548819609e-09 -3.8724971973598475e-09 0.0000000000000000e+00  -1.2314992160412223e-09 -4.2470708631325661e-09 0.0000000000000000e+00  -8.4471121581278809e-10 -4.5099442166337492e-09 0.0000000000000000e+00  -5.2090925139339586e-10 -4.6489762491864040e-09 0.0000000000000000e+00  -4.9858590543843560e-10 -4.5116537805850261e-09 0.0000000000000000e+00  -6.7358092691771925e-10 5.2415352121490397e-09 0.0000000000000000e+00  -6.2251125586654868e-10 5.0562053978030257e-09 0.0000000000000000e+00  -9.3912794409165590e-10 4.9027694872760285e-09 0.0000000000000000e+00  -1.3204225902511583e-09 4.6191041137628692e-09 0.0000000000000000e+00  -1.6845999844581882e-09 4.2096161706112061e-09 0.0000000000000000e+00  -2.0080402735727827e-09 3.6865639183112916e-09 0.0000000000000000e+00  -2.2800131918285194e-09 3.0658642216941802e-09 0.0000000000000000e+00  -2.4940542336798636e-09 2.3655876124940246e-09 0.0000000000000000e+00  -2.6460075298949104e-09 1.6051051237044213e-09 0.0000000000000000e+00  -2.7333645080282171e-09 8.0448120756272164e-10 0.0000000000000000e+00  -2.7548907789961654e-09 -1.5922576025594709e-11 0.0000000000000000e+00  -2.7104057593252722e-09 -8.3567868794845643e-10 0.0000000000000000e+00  -2.6007260351297220e-09 -1.6344381675964893e-09 0.0000000000000000e+00  -2.4277807899210688e-09 -2.3920867313255196e-09 0.0000000000000000e+00  -2.1948829807480333e-09 -3.0890085018430591e-09 0.0000000000000000e+00  -1.9071535901417271e-09 -3.7065289019981099e-09 0.0000000000000000e+00  -1.5722940688452553e-09 -4.2275621278576936e-09 0.0000000000000000e+00  -1.2028721551215614e-09 -4.6374073096534124e-09 0.0000000000000000e+00  -8.2546555529889209e-10 -4.9242301983396356e-09 0.0000000000000000e+00  -5.2022718563804684e-10 -5.0748418069757473e-09 0.0000000000000000e+00  -5.5185608776474617e-10 -4.9399676369894312e-09 0.0000000000000000e+00  -7.4743741119544576e-10 5.6560817423767489e-09 0.0000000000000000e+00  -6.2617414934895199e-10 5.4796699092953627e-09 0.0000000000000000e+00  -9.1526403213939426e-10 5.3125207650973908e-09 0.0000000000000000e+00  -1.2776648166282078e-09 5.0021031312670869e-09 0.0000000000000000e+00  -1.6243718038379497e-09 4.5546571604682825e-09 0.0000000000000000e+00  -1.930