<?xml version="1.0"?>
<VTKFile type="UnstructuredGrid"  version="0.1"  >
<UnstructuredGrid>
<Piece  NumberOfPoints="651" NumberOfCells="1200">
<Points>
<DataArray  type="Float64"  NumberOfComponents="3"  format="ascii">0 0 0  50000 0 0  100000 0 0  150000 0 0  200000 0 0  250000 0 0  300000 0 0  350000 0 0  400000 0 0  450000 0 0  500000 0 0  550000 0 0  600000 0 0  650000 0 0  700000 0 0  750000 0 0  800000 0 0  850000 0 0  900000 0 0  950000 0 0  1000000 0 0  0 50000 0  50000 50000 0  100000 50000 0  150000 50000 0  200000 50000 0  250000 50000 0  300000 50000 0  350000 50000 0  400000 50000 0  450000 50000 0  500000 50000 0  550000 50000 0  600000 50000 0  650000 50000 0  700000 50000 0  750000 50000 0  800000 50000 0  850000 50000 0  900000 50000 0  950000 50000 0  1000000 50000 0  0 100000 0  50000 100000 0  100000 100000 0  150000 100000 0  200000 100000 0  250000 100000 0  300000 100000 0  350000 100000 0  400000 100000 0  450000 100000 0  500000 100000 0  550000 100000 0  600000 100000 0  650000 100000 0  700000 100000 0  750000 100000 0  800000 100000 0  850000 100000 0  900000 100000 0  950000 100000 0  1000000 100000 0  0 150000 0  50000 150000 0  100000 150000 0  150000 150000 0  200000 150000 0  250000 150000 0  300000 150000 0  350000 150000 0  400000 150000 0  450000 150000 0  500000 150000 0  550000 150000 0  600000 150000 0  650000 150000 0  700000 150000 0  750000 150000 0  800000 150000 0  850000 150000 0  900000 150000 0  950000 150000 0  1000000 150000 0  0 200000 0  50000 200000 0  100000 200000 0  150000 200000 0  200000 200000 0  250000 200000 0  300000 200000 0  350000 200000 0  400000 200000 0  450000 200000 0  500000 200000 0  550000 200000 0  600000 200000 0  650000 200000 0  700000 200000 0  750000 200000 0  800000 200000 0  850000 200000 0  900000 200000 0  950000 200000 0  1000000 200000 0  0 250000 0  50000 250000 0  100000 250000 0  150000 250000 0  200000 250000 0  250000 250000 0  300000 250000 0  350000 250000 0  400000 250000 0  450000 250000 0  500000 250000 0  550000 250000 0  600000 250000 0  650000 250000 0  700000 250000 0  750000 250000 0  800000 250000 0  850000 250000 0  900000 250000 0  950000 250000 0  1000000 250000 0  0 300000 0  50000 300000 0  100000 300000 0  150000 300000 0  200000 300000 0  250000 300000 0  300000 300000 0  350000 300000 0  400000 300000 0  450000 300000 0  500000 300000 0  550000 300000 0  600000 300000 0  650000 300000 0  700000 300000 0  750000 300000 0  800000 300000 0  850000 300000 0  900000 300000 0  950000 300000 0  1000000 300000 0  0 350000 0  50000 350000 0  100000 350000 0  150000 350000 0  200000 350000 0  250000 350000 0  300000 350000 0  350000 350000 0  400000 350000 0  450000 350000 0  500000 350000 0  550000 350000 0  600000 350000 0  650000 350000 0  700000 350000 0  750000 350000 0  800000 350000 0  850000 350000 0  900000 350000 0  950000 350000 0  1000000 350000 0  0 400000 0  50000 400000 0  100000 400000 0  150000 400000 0  200000 400000 0  250000 400000 0  300000 400000 0  350000 400000 0  400000 400000 0  450000 400000 0  500000 400000 0  550000 400000 0  600000 400000 0  650000 400000 0  700000 400000 0  750000 400000 0  800000 400000 0  850000 400000 0  900000 400000 0  950000 400000 0  1000000 400000 0  0 450000 0  50000 450000 0  100000 450000 0  150000 450000 0  200000 450000 0  250000 450000 0  300000 450000 0  350000 450000 0  400000 450000 0  450000 450000 0  500000 450000 0  550000 450000 0  600000 450000 0  650000 450000 0  700000 450000 0  750000 450000 0  800000 450000 0  850000 450000 0  900000 450000 0  950000 450000 0  1000000 450000 0  0 500000 0  50000 500000 0  100000 500000 0  150000 500000 0  200000 500000 0  250000 500000 0  300000 500000 0  350000 500000 0  400000 500000 0  450000 500000 0  500000 500000 0  550000 500000 0  600000 500000 0  650000 500000 0  700000 500000 0  750000 500000 0  800000 500000 0  850000 500000 0  900000 500000 0  950000 500000 0  1000000 500000 0  0 550000 0  50000 550000 0  100000 550000 0  150000 550000 0  200000 550000 0  250000 550000 0  300000 550000 0  350000 550000 0  400000 550000 0  450000 550000 0  500000 550000 0  550000 550000 0  600000 550000 0  650000 550000 0  700000 550000 0  750000 550000 0  800000 550000 0  850000 550000 0  900000 550000 0  950000 550000 0  1000000 550000 0  0 600000 0  50000 600000 0  100000 600000 0  150000 600000 0  200000 600000 0  250000 600000 0  300000 600000 0  350000 600000 0  400000 600000 0  450000 600000 0  500000 600000 0  550000 600000 0  600000 600000 0  650000 600000 0  700000 600000 0  750000 600000 0  800000 600000 0  850000 600000 0  900000 600000 0  950000 600000 0  1000000 600000 0  0 650000 0  50000 650000 0  100000 650000 0  150000 650000 0  200000 650000 0  250000 650000 0  300000 650000 0  350000 650000 0  400000 650000 0  450000 650000 0  500000 650000 0  550000 650000 0  600000 650000 0  650000 650000 0  700000 650000 0  750000 650000 0  800000 650000 0  850000 650000 0  900000 650000 0  950000 650000 0  1000000 650000 0  0 700000 0  50000 700000 0  100000 700000 0  150000 700000 0  200000 700000 0  250000 700000 0  300000 700000 0  350000 700000 0  400000 700000 0  450000 700000 0  500000 700000 0  550000 700000 0  600000 700000 0  650000 700000 0  700000 700000 0  750000 700000 0  800000 700000 0  850000 700000 0  900000 700000 0  950000 700000 0  1000000 700000 0  0 750000 0  50000 750000 0  100000 750000 0  150000 750000 0  200000 750000 0  250000 750000 0  300000 750000 0  350000 750000 0  400000 750000 0  450000 750000 0  500000 750000 0  550000 750000 0  600000 750000 0  650000 750000 0  700000 750000 0  750000 750000 0  800000 750000 0  850000 750000 0  900000 750000 0  950000 750000 0  1000000 750000 0  0 800000 0  50000 800000 0  100000 800000 0  150000 800000 0  200000 800000 0  250000 800000 0  300000 800000 0  350000 800000 0  400000 800000 0  450000 800000 0  500000 800000 0  550000 800000 0  600000 800000 0  650000 800000 0  700000 800000 0  750000 800000 0  800000 800000 0  850000 800000 0  900000 800000 0  950000 800000 0  1000000 800000 0  0 850000 0  50000 850000 0  100000 850000 0  150000 850000 0  200000 850000 0  250000 850000 0  300000 850000 0  350000 850000 0  400000 850000 0  450000 850000 0  500000 850000 0  550000 850000 0  600000 850000 0  650000 850000 0  700000 850000 0  750000 850000 0  800000 850000 0  850000 850000 0  900000 850000 0  950000 850000 0  1000000 850000 0  0 900000 0  50000 900000 0  100000 900000 0  150000 900000 0  200000 900000 0  250000 900000 0  300000 900000 0  350000 900000 0  400000 900000 0  450000 900000 0  500000 900000 0  550000 900000 0  600000 900000 0  650000 900000 0  700000 900000 0  750000 900000 0  800000 900000 0  850000 900000 0  900000 900000 0  950000 900000 0  1000000 900000 0  0 950000 0  50000 950000 0  100000 950000 0  150000 950000 0  200000 950000 0  250000 950000 0  300000 950000 0  350000 950000 0  400000 950000 0  450000 950000 0  500000 950000 0  550000 950000 0  600000 950000 0  650000 950000 0  700000 950000 0  750000 950000 0  800000 950000 0  850000 950000 0  900000 950000 0  950000 950000 0  1000000 950000 0  0 1000000 0  50000 1000000 0  100000 1000000 0  150000 1000000 0  200000 1000000 0  250000 1000000 0  300000 1000000 0  350000 1000000 0  400000 1000000 0  450000 1000000 0  500000 1000000 0  550000 1000000 0  600000 1000000 0  650000 1000000 0  700000 1000000 0  750000 1000000 0  800000 1000000 0  850000 1000000 0  900000 1000000 0  950000 1000000 0  1000000 1000000 0  0 1050000 0  50000 1050000 0  100000 1050000 0  150000 1050000 0  200000 1050000 0  250000 1050000 0  300000 1050000 0  350000 1050000 0  400000 1050000 0  450000 1050000 0  500000 1050000 0  550000 1050000 0  600000 1050000 0  650000 1050000 0  700000 1050000 0  750000 1050000 0  800000 1050000 0  850000 1050000 0  900000 1050000 0  950000 1050000 0  1000000 1050000 0  0 1100000 0  50000 1100000 0  100000 1100000 0  150000 1100000 0  200000 1100000 0  250000 1100000 0  300000 1100000 0  350000 1100000 0  400000 1100000 0  450000 1100000 0  500000 1100000 0  550000 1100000 0  600000 1100000 0  650000 1100000 0  700000 1100000 0  750000 1100000 0  800000 1100000 0  850000 1100000 0  900000 1100000 0  950000 1100000 0  1000000 1100000 0  0 1150000 0  50000 1150000 0  100000 1150000 0  150000 1150000 0  200000 1150000 0  250000 1150000 0  300000 1150000 0  350000 1150000 0  400000 1150000 0  450000 1150000 0  500000 1150000 0  550000 1150000 0  600000 1150000 0  650000 1150000 0  700000 1150000 0  750000 1150000 0  800000 1150000 0  850000 1150000 0  900000 1150000 0  950000 1150000 0  1000000 1150000 0  0 1200000 0  50000 1200000 0  100000 1200000 0  150000 1200000 0  200000 1200000 0  250000 1200000 0  300000 1200000 0  350000 1200000 0  400000 1200000 0  450000 1200000 0  500000 1200000 0  550000 1200000 0  600000 1200000 0  650000 1200000 0  700000 1200000 0  750000 1200000 0  800000 1200000 0  850000 1200000 0  900000 1200000 0  950000 1200000 0  1000000 1200000 0  0 1250000 0  50000 1250000 0  100000 1250000 0  150000 1250000 0  200000 1250000 0  250000 1250000 0  300000 1250000 0  350000 1250000 0  400000 1250000 0  450000 1250000 0  500000 1250000 0  550000 1250000 0  600000 1250000 0  650000 1250000 0  700000 1250000 0  750000 1250000 0  800000 1250000 0  850000 1250000 0  900000 1250000 0  950000 1250000 0  1000000 1250000 0  0 1300000 0  50000 1300000 0  100000 1300000 0  150000 1300000 0  200000 1300000 0  250000 1300000 0  300000 1300000 0  350000 1300000 0  400000 1300000 0  450000 1300000 0  500000 1300000 0  550000 1300000 0  600000 1300000 0  650000 1300000 0  700000 1300000 0  750000 1300000 0  800000 1300000 0  850000 1300000 0  900000 1300000 0  950000 1300000 0  1000000 1300000 0  0 1350000 0  50000 1350000 0  100000 1350000 0  150000 1350000 0  200000 1350000 0  250000 1350000 0  300000 1350000 0  350000 1350000 0  400000 1350000 0  450000 1350000 0  500000 1350000 0  550000 1350000 0  600000 1350000 0  650000 1350000 0  700000 135
[...]
<PointData  Vectors="f_5975"> 
<DataArray  type="Float64"  Name="f_5975"  NumberOfComponents="3" format="ascii">-3.2451791866559122e-10 2.7273257838673395e-10 0.0000000000000000e+00  -5.9745011878147141e-10 2.1837620134067733e-10 0.0000000000000000e+00  -1.0840759259547968e-09 1.9320916884477139e-10 0.0000000000000000e+00  -1.5548224650490662e-09 1.7133988148471936e-10 0.0000000000000000e+00  -1.9858798340714757e-09 1.4701486432224463e-10 0.0000000000000000e+00  -2.3646064057866055e-09 1.1939862568809345e-10 0.0000000000000000e+00  -2.6807869933573770e-09 8.8638669170312033e-11 0.0000000000000000e+00  -2.9261900177845757e-09 5.5247284038950267e-11 0.0000000000000000e+00  -3.0945402214602758e-09 1.9930158461514434e-11 0.0000000000000000e+00  -3.1816206448462477e-09 -1.6495245081091675e-11 0.0000000000000000e+00  -3.1853595207035037e-09 -5.3149333006712423e-11 0.0000000000000000e+00  -3.1058720681168150e-09 -8.9127320124447808e-11 0.0000000000000000e+00  -2.9454514158257870e-09 -1.2353084479336062e-10 0.0000000000000000e+00  -2.7085084779378371e-09 -1.5549749516955661e-10 0.0000000000000000e+00  -2.4014712371569183e-09 -1.8423162363043318e-10 0.0000000000000000e+00  -2.0327084877285995e-09 -2.0904868869565510e-10 0.0000000000000000e+00  -1.6128213907717347e-09 -2.2948247918766444e-10 0.0000000000000000e+00  -1.1568863588597475e-09 -2.4559748774657844e-10 0.0000000000000000e+00  -6.9513743017117290e-10 -2.5765021813833509e-10 0.0000000000000000e+00  -3.1851005994612901e-10 -2.4777359181032352e-10 0.0000000000000000e+00  -1.5931173414626448e-10 -1.6333708971587702e-10 0.0000000000000000e+00  -2.7818072097176332e-10 5.2216460433236963e-10 0.0000000000000000e+00  -4.9287952334094412e-10 4.7726758179037600e-10 0.0000000000000000e+00  -8.7332820739575451e-10 4.9527177998841591e-10 0.0000000000000000e+00  -1.2980394634107025e-09 4.7189429416162145e-10 0.0000000000000000e+00  -1.7041505973063152e-09 4.2910936166149506e-10 0.0000000000000000e+00  -2.0703003782110307e-09 3.7271434705229421e-10 0.0000000000000000e+00  -2.3843435822271043e-09 3.0561668240528765e-10 0.0000000000000000e+00  -2.6371449938228019e-09 2.3010770933799950e-10 0.0000000000000000e+00  -2.8217389680154158e-09 1.4840067578754538e-10 0.0000000000000000e+00  -2.9332121064538562e-09 6.2752813065247818e-11 0.0000000000000000e+00  -2.9687081616844915e-09 -2.4528648461629405e-11 0.0000000000000000e+00  -2.9274460339157301e-09 -1.1111734348869692e-10 0.0000000000000000e+00  -2.8107167512210681e-09 -1.9471041942277628e-10 0.0000000000000000e+00  -2.6218501426878219e-09 -2.7307236158781014e-10 0.0000000000000000e+00  -2.3661587298284051e-09 -3.4407194714567354e-10 0.0000000000000000e+00  -2.0509018524364727e-09 -4.0569907604623574e-10 0.0000000000000000e+00  -1.6854483106117529e-09 -4.5601344519324490e-10 0.0000000000000000e+00  -1.2824154128093169e-09 -4.9273121479116135e-10 0.0000000000000000e+00  -8.6308017313231710e-10 -5.1061202150030428e-10 0.0000000000000000e+00  -4.7957529173358385e-10 -4.8938830550519684e-10 0.0000000000000000e+00  -2.4990407204887082e-10 -3.1248842336383487e-10 0.0000000000000000e+00  -2.7583665526779439e-10 9.6347829820669926e-10 0.0000000000000000e+00  -5.0245643654506573e-10 8.5312803399336624e-10 0.0000000000000000e+00  -8.6237235499715516e-10 8.6916167024399597e-10 0.0000000000000000e+00  -1.2504813195475751e-09 8.3484417606477405e-10 0.0000000000000000e+00  -1.6237662253275793e-09 7.6569022462278552e-10 0.0000000000000000e+00  -1.9630483871904585e-09 6.7061944481919529e-10 0.0000000000000000e+00  -2.2555690971093082e-09 5.5534458793725251e-10 0.0000000000000000e+00  -2.4920277075820031e-09 4.2435473971639354e-10 0.0000000000000000e+00  -2.6654734863852537e-09 2.8180541304237950e-10 0.0000000000000000e+00  -2.7710324137315622e-09 1.3181966971816511e-10 0.0000000000000000e+00  -2.8058521259252652e-09 -2.1444598126158802e-11 0.0000000000000000e+00  -2.7690887691986652e-09 -1.7381766105490617e-10 0.0000000000000000e+00  -2.6618897061749600e-09 -3.2117378535161819e-10 0.0000000000000000e+00  -2.4873586634342138e-09 -4.5949230699138274e-10 0.0000000000000000e+00  -2.2505081199090960e-09 -5.8490164132268060e-10 0.0000000000000000e+00  -1.9582359636896257e-09 -6.9366950947891564e-10 0.0000000000000000e+00  -1.6194683455649403e-09 -7.8204572616407389e-10 0.0000000000000000e+00  -1.2460022836595116e-09 -8.4569091886003837e-10 0.0000000000000000e+00  -8.5607653335185408e-10 -8.7796040860045104e-10 0.0000000000000000e+00  -4.9141298895608529e-10 -8.6554398332073460e-10 0.0000000000000000e+00  -2.6226233604441529e-10 -6.6316886551460561e-10 0.0000000000000000e+00  -2.8755942073881476e-10 1.3975994811743264e-09 0.0000000000000000e+00  -5.0105752315297937e-10 1.2636980366552967e-09 0.0000000000000000e+00  -8.5379747885518155e-10 1.2588425438581446e-09 0.0000000000000000e+00  -1.2278160045902837e-09 1.2056774705452959e-09 0.0000000000000000e+00  -1.5833218783464634e-09 1.1078817513991781e-09 0.0000000000000000e+00  -1.9051953991723191e-09 9.7332701536285666e-10 0.0000000000000000e+00  -2.1826828561327285e-09 8.0910664053998871e-10 0.0000000000000000e+00  -2.4071553103664118e-09 6.2157078999326092e-10 0.0000000000000000e+00  -2.5719333211896732e-09 4.1679900790052532e-10 0.0000000000000000e+00  -2.6722725711714391e-09 2.0084169307990062e-10 0.0000000000000000e+00  -2.7053649614046032e-09 -2.0215816583703011e-11 0.0000000000000000e+00  -2.6703362221036099e-09 -2.4028437234085263e-10 0.0000000000000000e+00  -2.5682264355875512e-09 -4.5334484442801550e-10 0.0000000000000000e+00  -2.4019471018629165e-09 -6.5353292057521426e-10 0.0000000000000000e+00  -2.1762147393923253e-09 -8.3521014968945768e-10 0.0000000000000000e+00  -1.8974768438033152e-09 -9.9299275244052459e-10 0.0000000000000000e+00  -1.5739122096516764e-09 -1.1217013918166147e-09 0.0000000000000000e+00  -1.2159095101648241e-09 -1.2162147229591758e-09 0.0000000000000000e+00  -8.3906815450345767e-10 -1.2711816609990238e-09 0.0000000000000000e+00  -4.8236438711128966e-10 -1.2785362454094727e-09 0.0000000000000000e+00  -2.6342345558802315e-10 -1.0889519196699972e-09 0.0000000000000000e+00  -3.0667297947419879e-10 1.8223145048510897e-09 0.0000000000000000e+00  -5.0229579827657438e-10 1.6751760895588927e-09 0.0000000000000000e+00  -8.5037138589599728e-10 1.6489680749207889e-09 0.0000000000000000e+00  -1.2196088365678259e-09 1.5719961564102988e-09 0.0000000000000000e+00  -1.5679606929336173e-09 1.4435064151496800e-09 0.0000000000000000e+00  -1.8814277002272247e-09 1.2694503693740648e-09 0.0000000000000000e+00  -2.1506913651933823e-09 1.0572469600515538e-09 0.0000000000000000e+00  -2.3680614188810884e-09 8.1454086990387325e-10 0.0000000000000000e+00  -2.5273529907005027e-09 5.4907551940386813e-10 0.0000000000000000e+00  -2.6240649569069065e-09 2.6870717865194184e-10 0.0000000000000000e+00  -2.6554913072706470e-09 -1.8620009841206059e-11 0.0000000000000000e+00  -2.6207628036735153e-09 -3.0495071059003390e-10 0.0000000000000000e+00  -2.5208405289020090e-09 -5.8242808964780665e-10 0.0000000000000000e+00  -2.3584689017776935e-09 -8.4341777484575613e-10 0.0000000000000000e+00  -2.1380886333156128e-09 -1.0806322301805549e-09 0.0000000000000000e+00  -1.8657183491403384e-09 -1.2872500660907465e-09 0.0000000000000000e+00  -1.5488884848661090e-09 -1.4570486310584756e-09 0.0000000000000000e+00  -1.1971260198477330e-09 -1.5846221377839247e-09 0.0000000000000000e+00  -8.2551447796041991e-10 -1.6655441161634864e-09 0.0000000000000000e+00  -4.7506130260424737e-10 -1.6931324276394329e-09 0.0000000000000000e+00  -2.7247152165243662e-10 -1.5188047631232173e-09 0.0000000000000000e+00  -3.3198897109879232e-10 2.2429786931980298e-09 0.0000000000000000e+00  -5.0890481816580799e-10 2.0854391906008128e-09 0.0000000000000000e+00  -8.5449558182498920e-10 2.0398544128570501e-09 0.0000000000000000e+00  -1.2239332038900519e-09 1.9371259577190347e-09 0.0000000000000000e+00  -1.5716335403542808e-09 1.7760314755063844e-09 0.0000000000000000e+00  -1.8831418763985705e-09 1.5616292773376998e-09 0.0000000000000000e+00  -2.1496539920553735e-09 1.3014842888839396e-09 0.0000000000000000e+00  -2.3640966341974509e-09 1.0041980978672977e-09 0.0000000000000000e+00  -2.5207364543394402e-09 6.7893117999522328e-10 0.0000000000000000e+00  -2.6153477256008625e-09 3.3518819337296999e-10 0.0000000000000000e+00  -2.6453659599830235e-09 -1.7333460376494565e-11 0.0000000000000000e+00  -2.6099634538077558e-09 -3.6889451398490557e-10 0.0000000000000000e+00  -2.5100599825758452e-09 -7.0987755259671948e-10 0.0000000000000000e+00  -2.3482806572487122e-09 -1.0309635496278479e-09 0.0000000000000000e+00  -2.1288660438733428e-09 -1.3233216765891617e-09 0.0000000000000000e+00  -1.8575529467758787e-09 -1.5788221922622225e-09 0.0000000000000000e+00  -1.5415478136793927e-09 -1.7903018755157242e-09 0.0000000000000000e+00  -1.1902210361305175e-09 -1.9519170233496852e-09 0.0000000000000000e+00  -8.1937803511340765e-10 -2.0592284702412817e-09 0.0000000000000000e+00  -4.7331329712425346e-10 -2.1051842900959933e-09 0.0000000000000000e+00  -2.8839781648601187e-10 -1.9421939017510631e-09 0.0000000000000000e+00  -3.6312422546715675e-10 2.6643951191855375e-09 0.0000000000000000e+00  -5.2083644734499212e-10 2.4974984841702724e-09 0.0000000000000000e+00  -8.6605017565085122e-10 2.4339996007205082e-09 0.0000000000000000e+00  -1.2389314241396832e-09 2.3050282424286005e-09 0.0000000000000000e+00  -1.5899940211829104e-09 2.1099586107530895e-09 0.0000000000000000e+00  -1.9037531242905379e-09 1.8539971298907351e-09 0.0000000000000000e+00  -2.1713386032479975e-09 1.5451448020959090e-09 0.0000000000000000e+00  -2.3859285738985348e-09 1.1929199360369924e-09 0.0000000000000000e+00  -2.5420809052890981e-09 8.0777938695981589e-10 0.0000000000000000e+00  -2.6357990405008543e-09 4.0076096584945439e-10 0.0000000000000000e+00  -2.6646642224097578e-09 -1.6779498734278902e-11 0.0000000000000000e+00  -2.6279154911382011e-09 -4.3339768478816028e-10 0.0000000000000000e+00  -2.5264704239035299e-09 -8.3778462569226415e-10 0.0000000000000000e+00  -2.3628945694512895e-09 -1.2189987632155785e-09 0.0000000000000000e+00  -2.1413281363454744e-09 -1.5667170129120662e-09 0.0000000000000000e+00  -1.8674010084233852e-09 -1.8715186549999488e-09 0.0000000000000000e+00  -1.5482932201805186e-09 -2.1252187475226915e-09 0.0000000000000000e+00  -1.1936590816686264e-09 -2.3212329705831930e-09 0.0000000000000000e+00  -8.2050111018741058e-10 -2.4545127008552755e-09 0.0000000000000000e+00  -4.7681607002008238e-10 -2.5171198695464467e-09 0.0000000000000000e+00  -3.1023322307976056e-10 -2.3614640888739103e-09 0.0000000000000000e+00  -3.9994281609481820e-10 3.0901381400815818e-09 0.0000000000000000e+00  -5.3716067326524968e-10 2.9144113769050483e-09 0.0000000000000000e+00  -8.8340829042344987e-10 2.8339360339013979e-09 0.0000000000000000e+00  -1.2617814701156623e-09 2.6785561722894527e-09 0.0000000000000000e+00  -1.6185482412683090e-09 2.4485016831001340e-09 0.0000000000000000e+00  -1.9370090141001222e-09 2.1496948404662717e-09 0.0000000000000000e+00  -2.2079634269075701e-09 1.7909289633908626e-09 0.0000000000000000e+00  -2.4246079360617855e-09 1.3827635163742375e-09 0.0000000000000000e+00  -2.5816486125133919e-09 9.3695048396881302e-10 0.0000000000000000e+00  -2.6752554488591355e-09 4.6601051608112097e-10 0.0000000000000000e+00  -2.7031422127304681e-09 -1.7105641806084855e-11 0.0000000000000000e+00  -2.6646276337829440e-09 -4.9931032360725212e-10 0.0000000000000000e+00  -2.5606567342052459e-09 -9.6765482574355364e-10 0.0000000000000000e+00  -2.3937847298311089e-09 -1.4096087710738942e-09 0.0000000000000000e+00  -2.1681325284135366e-09 -1.8133594506088703e-09 0.0000000000000000e+00  -1.8893519252501676e-09 -2.1681438861207389e-09 0.0000000000000000e+00  -1.5647786595443311e-09 -2.4646161525161835e-09 0.0000000000000000e+00  -1.2045566095513652e-09 -2.6952015409848741e-09 0.0000000000000000e+00  -8.2706312290755089e-10 -2.8539502405320160e-09 0.0000000000000000e+00  -4.8438719145172225e-10 -2.9319391389678490e-09 0.0000000000000000e+00  -3.3754904055782135e-10 -2.7805844567997589e-09 0.0000000000000000e+00  -4.4244148182619771e-10 3.5222442015431184e-09 0.0000000000000000e+00  -5.5655540315540511e-10 3.3382570622585229e-09 0.0000000000000000e+00  -9.0410092274828564e-10 3.2413341114426265e-09 0.0000000000000000e+00  -1.2887586838562187e-09 3.0593283170115366e-09 0.0000000000000000e+00  -1.6521232152442863e-09 2.7933923444747122e-09 0.0000000000000000e+00  -1.9762128763531805e-09 2.4504557104483447e-09 0.0000000000000000e+00  -2.2514170239360542e-09 2.0403869339487481e-09 0.0000000000000000e+00  -2.4708566204569020e-09 1.5749557298481236e-09 0.0000000000000000e+00  -2.6293173671101819e-09 1.0672746876260315e-09 0.0000000000000000e+00  -2.7231036726072599e-09 5.3134591704693539e-10 0.0000000000000000e+00  -2.7500562049693367e-09 -1.8320976466643285e-11 0.0000000000000000e+00  -2.7095808761944645e-09 -5.6704218606964953e-10 0.0000000000000000e+00  -2.6026635309923318e-09 -1.1002691418818806e-09 0.0000000000000000e+00  -2.4318694731221871e-09 -1.6038986652174180e-09 0.0000000000000000e+00  -2.2013347764469384e-09 -2.0646045770594261e-09 0.0000000000000000e+00  -1.9167879612049209e-09 -2.4702032135172076e-09 0.0000000000000000e+00  -1.5857915235052055e-09 -2.8100479404593079e-09 0.0000000000000000e+00  -1.2190495760640104e-09 -3.0753934375444541e-09 0.0000000000000000e+00  -8.3641052335023146e-10 -3.2592455001170714e-09 0.0000000000000000e+00  -4.9452362813230900e-10 -3.3517033740724300e-09 0.0000000000000000e+00  -3.7014926198103917e-10 -3.2025737632768130e-09 0.0000000000000000e+00  -4.9069371509905280e-10 3.9610059985219781e-09 0.0000000000000000e+00  -5.7741643720782126e-10 3.7697104368023568e-09 0.0000000000000000e+00  -9.2502512413880764e-10 3.6565795031543177e-09 0.0000000000000000e+00  -1.3152755460613219e-09 3.4475961656201999e-09 0.0000000000000000e+00  -1.6846090511794110e-09 3.1448853833144631e-09 0.0000000000000000e+00  -2.0137295178273210e-09 2.7565676844023414e-09 0.0000000000000000e+00  -2.2926401743859757e-09 2.2938030354715240e-09 0.0000000000000000e+00  -2.5144053476203110e-09 1.7697363908798499e-09 0.0000000000000000e+00  -2.6739093970339890e-09 1.1989281742540377e-09 0.0000000000000000e+00  -2.7676142285219487e-09 5.9688019758256711e-10 0.0000000000000000e+00  -2.7935083680561303e-09 -2.0367400295424730e-11 0.0000000000000000e+00  -2.7510947044488041e-09 -6.3658372642761482e-10 0.0000000000000000e+00  -2.6413937382779177e-09 -1.2356646835037303e-09 0.0000000000000000e+00  -2.4669608649324693e-09 -1.8019509941497003e-09 0.0000000000000000e+00  -2.2319209144122500e-09 -2.3205742143162019e-09 0.0000000000000000e+00  -1.9420542323950567e-09 -2.7778469509700779e-09 0.0000000000000000e+00  -1.6051306539536318e-09 -3.1616917297775911e-09 0.0000000000000000e+00  -1.2324082398039016e-09 -3.4620478369191914e-09 0.0000000000000000e+00  -8.4528284674355400e-10 -3.6707801808902556e-09 0.0000000000000000e+00  -5.0547957552098592e-10 -3.7770272675432758e-09 0.0000000000000000e+00  -4.0795718936028731e-10 -3.6288970954096675e-09 0.0000000000000000e+00  -5.4481685283131859e-10 4.4047221956991815e-09 0.0000000000000000e+00  -5.9784343975788630e-10 4.2077172033929662e-09 0.0000000000000000e+00  -9.4243833402172268e-10 4.0784360115577979e-09 0.0000000000000000e+00  -1.3357956130501455e-09 3.8420099366444639e-09 0.0000000000000000e+00  -1.7087088454831036e-09 3.5016322631529153e-09 0.0000000000000000e+00  -2.0405583238170330e-09 3.0667792151836287e-09 0.0000000000000000e+00  -2.3210601898218249e-09 2.5500921970118858e-09 0.0000000000000000e+00  -2.5433382239043706e-09 1.9662453330514378e-09 0.0000000000000000e+00  -2.7024859549422232e-09 1.3313304495772356e-09 0.0000000000000000e+00  -2.7952150386920054e-09 6.6235830176259786e-10 0.0000000000000000e+00  -2.8197225957768123e-09 -2.3148604717593635e-11 0.0000000000000000e+00  -2.7756268214376831e-09 -7.0748945426935359e-10 0.0000000000000000e+00  -2.6639548758329676e-09 -1.3730783309941782e-09 0.0000000000000000e+00  -2.4871830647216918e-09 -2.0027399316278033e-09 0.0000000000000000e+00  -2.2493275372127429e-09 -2.5800480911498675e-09 0.0000000000000000e+00  -1.9561118493089149e-09 -3.0897330732819215e-09 0.0000000000000000e+00  -1.6154120420710507e-09 -3.5181568810693170e-09 0.0000000000000000e+00  -1.2389751778667525e-09 -3.8537975101781490e-09 0.0000000000000000e+00  -8.4980667662985089e-10 -4.0872730002305938e-09 0.0000000000000000e+00  -5.1523685653057160e-10 -4.2067572349035175e-09 0.0000000000000000e+00  -4.5096995884284797e-10 -4.0592098557156071e-09 0.0000000000000000e+00  -6.0495013248325806e-10 4.8493652173609154e-09 0.0000000000000000e+00  -6.1557635840378448e-10 4.6491483806717108e-09 0.0000000000000000e+00  -9.5185030814638866e-10 4.5036833311190493e-09 0.0000000000000000e+00  -1.3436469532209593e-09 4.2392917850803876e-09 0.0000000000000000e+00  -1.7156293393017381e-09 3.8604120659665762e-09 0.0000000000000000e+00  -2.0458795216934061e-09 3.3780742560039960e-09 0.0000000000000000e+00  -2.3240018642074921e-09 2.8066028296013223e-09 0.0000000000000000e+00  -2.5433963582836681e-09 2.1623532668143537e-09 0.0000000000000000e+00  -2.6995780023941114e-09 1.4630156337611490e-09 0.0000000000000000e+00  -2.7896836064375763e-09 7.2708380933293524e-10 0.0000000000000000e+00  -2.8122311291636482e-09 -2.6537698265275810e-11 0.0000000000000000e+00  -2.7669858512866915e-09 -7.7881770640764801e-10 0.0000000000000000e+00  -2.6549282635181126e-09 -1.5108241630623147e-09 0.0000000000000000e+00  -2.4783266806820842e-09 -2.2039563854569129e-09 0.0000000000000000e+00  -2.2409063366222474e-09 -2.8402459803795525e-09 0.0000000000000000e+00  -1.9481295284495262e-09 -3.4027700637707418e-09 0.0000000000000000e+00  -1.6077882757716408e-09 -3.8761861570222630e-09 0.0000000000000000e+00  -1.2319900109296080e-09 -4.2473320635167523e-09 0.0000000000000000e+00  -8.4538667869917805e-10 -4.5054270151297183e-09 0.0000000000000000e+00  -5.2143542729256767e-10 -4.6376413090604167e-09 0.0000000000000000e+00  -4.9923335473457997e-10 -4.4910966960870441e-09 0.0000000000000000e+00  -6.7123947601591975e-10 5.2881506551007174e-09 0.0000000000000000e+00  -6.2790695289971546e-10 5.0883868752922664e-09 0.0000000000000000e+00  -9.4785698315804640e-10 4.9266868204659492e-09 0.0000000000000000e+00  -1.3307598413228171e-09 4.6338104832218385e-09 0.0000000000000000e+00  -1.6946962990271504e-09 4.2157318348307674e-09 0.0000000000000000e+00  -2.0165294886570639e-09 3.6853092002655160e-09 0.0000000000000000e+00  -2.2860237733296977e-09 3.0587983888144826e-09 0.0000000000000000e+00  -2.4971942943593916e-09 2.3544007145987099e-09 0.0000000000000000e+00  -2.6463140172452986e-09 1.5914457382624796e-09 0.0000000000000000e+00  -2.7312236983575174e-09 7.8982263436859641e-10 0.0000000000000000e+00  -2.7509398548072006e-09 -3.0373047191642744e-11 0.0000000000000000e+00  -2.7054246093152582e-09 -8.4902492260226908e-10 0.0000000000000000e+00  -2.5955270429552339e-09 -1.6460941648660727e-09 0.0000000000000000e+00  -2.4231032795735290e-09 -2.4017299839846275e-09 0.0000000000000000e+00  -2.1912986269594937e-09 -3.0964888331285839e-09 0.0000000000000000e+00  -1.9049896529798155e-09 -3.7117343740106524e-09 0.0000000000000000e+00  -1.5715825267344245e-09 -4.2302447468444076e-09 0.0000000000000000e+00  -1.2033336546698475e-09 -4.6369740918924898e-09 0.0000000000000000e+00  -8.2653781644475925e-10 -4.9195109954020512e-09 0.0000000000000000e+00  -5.2128063602841196e-10 -5.0639319888767738e-09 0.0000000000000000e+00  -5.5282519241753173e-10 -4.9197324040731567e-09 0.0000000000000000e+00  -7.4382894876880430e-10 5.7109937730843580e-09 0.0000000000000000e+00  -6.3157408147642206e-10 5.5168200503043475e-09 0.0000000000000000e+00  -9.2393294322527823e-10 5.3388709724708073e-09 0.0000000000000000e+00  -1.2873392304739252e-09 5.0170410102652198e-09 0.0000000000000000e+00  -1.6328860786799213e-09 4.5592900419344575e-09 0.0000000000000000e+00  -1.936