<?xml version="1.0"?>
<VTKFile type="UnstructuredGrid"  version="0.1"  >
<UnstructuredGrid>
<Piece  NumberOfPoints="651" NumberOfCells="1200">
<Points>
<DataArray  type="Float64"  NumberOfComponents="3"  format="ascii">0 0 0  50000 0 0  100000 0 0  150000 0 0  200000 0 0  250000 0 0  300000 0 0  350000 0 0  400000 0 0  450000 0 0  500000 0 0  550000 0 0  600000 0 0  650000 0 0  700000 0 0  750000 0 0  800000 0 0  850000 0 0  900000 0 0  950000 0 0  1000000 0 0  0 50000 0  50000 50000 0  100000 50000 0  150000 50000 0  200000 50000 0  250000 50000 0  300000 50000 0  350000 50000 0  400000 50000 0  450000 50000 0  500000 50000 0  550000 50000 0  600000 50000 0  650000 50000 0  700000 50000 0  750000 50000 0  800000 50000 0  850000 50000 0  900000 50000 0  950000 50000 0  1000000 50000 0  0 100000 0  50000 100000 0  100000 100000 0  150000 100000 0  200000 100000 0  250000 100000 0  300000 100000 0  350000 100000 0  400000 100000 0  450000 100000 0  500000 100000 0  550000 100000 0  600000 100000 0  650000 100000 0  700000 100000 0  750000 100000 0  800000 100000 0  850000 100000 0  900000 100000 0  950000 100000 0  1000000 100000 0  0 150000 0  50000 150000 0  100000 150000 0  150000 150000 0  200000 150000 0  250000 150000 0  300000 150000 0  350000 150000 0  400000 150000 0  450000 150000 0  500000 150000 0  550000 150000 0  600000 150000 0  650000 150000 0  700000 150000 0  750000 150000 0  800000 150000 0  850000 150000 0  900000 150000 0  950000 150000 0  1000000 150000 0  0 200000 0  50000 200000 0  100000 200000 0  150000 200000 0  200000 200000 0  250000 200000 0  300000 200000 0  350000 200000 0  400000 200000 0  450000 200000 0  500000 200000 0  550000 200000 0  600000 200000 0  650000 200000 0  700000 200000 0  750000 200000 0  800000 200000 0  850000 200000 0  900000 200000 0  950000 200000 0  1000000 200000 0  0 250000 0  50000 250000 0  100000 250000 0  150000 250000 0  200000 250000 0  250000 250000 0  300000 250000 0  350000 250000 0  400000 250000 0  450000 250000 0  500000 250000 0  550000 250000 0  600000 250000 0  650000 250000 0  700000 250000 0  750000 250000 0  800000 250000 0  850000 250000 0  900000 250000 0  950000 250000 0  1000000 250000 0  0 300000 0  50000 300000 0  100000 300000 0  150000 300000 0  200000 300000 0  250000 300000 0  300000 300000 0  350000 300000 0  400000 300000 0  450000 300000 0  500000 300000 0  550000 300000 0  600000 300000 0  650000 300000 0  700000 300000 0  750000 300000 0  800000 300000 0  850000 300000 0  900000 300000 0  950000 300000 0  1000000 300000 0  0 350000 0  50000 350000 0  100000 350000 0  150000 350000 0  200000 350000 0  250000 350000 0  300000 350000 0  350000 350000 0  400000 350000 0  450000 350000 0  500000 350000 0  550000 350000 0  600000 350000 0  650000 350000 0  700000 350000 0  750000 350000 0  800000 350000 0  850000 350000 0  900000 350000 0  950000 350000 0  1000000 350000 0  0 400000 0  50000 400000 0  100000 400000 0  150000 400000 0  200000 400000 0  250000 400000 0  300000 400000 0  350000 400000 0  400000 400000 0  450000 400000 0  500000 400000 0  550000 400000 0  600000 400000 0  650000 400000 0  700000 400000 0  750000 400000 0  800000 400000 0  850000 400000 0  900000 400000 0  950000 400000 0  1000000 400000 0  0 450000 0  50000 450000 0  100000 450000 0  150000 450000 0  200000 450000 0  250000 450000 0  300000 450000 0  350000 450000 0  400000 450000 0  450000 450000 0  500000 450000 0  550000 450000 0  600000 450000 0  650000 450000 0  700000 450000 0  750000 450000 0  800000 450000 0  850000 450000 0  900000 450000 0  950000 450000 0  1000000 450000 0  0 500000 0  50000 500000 0  100000 500000 0  150000 500000 0  200000 500000 0  250000 500000 0  300000 500000 0  350000 500000 0  400000 500000 0  450000 500000 0  500000 500000 0  550000 500000 0  600000 500000 0  650000 500000 0  700000 500000 0  750000 500000 0  800000 500000 0  850000 500000 0  900000 500000 0  950000 500000 0  1000000 500000 0  0 550000 0  50000 550000 0  100000 550000 0  150000 550000 0  200000 550000 0  250000 550000 0  300000 550000 0  350000 550000 0  400000 550000 0  450000 550000 0  500000 550000 0  550000 550000 0  600000 550000 0  650000 550000 0  700000 550000 0  750000 550000 0  800000 550000 0  850000 550000 0  900000 550000 0  950000 550000 0  1000000 550000 0  0 600000 0  50000 600000 0  100000 600000 0  150000 600000 0  200000 600000 0  250000 600000 0  300000 600000 0  350000 600000 0  400000 600000 0  450000 600000 0  500000 600000 0  550000 600000 0  600000 600000 0  650000 600000 0  700000 600000 0  750000 600000 0  800000 600000 0  850000 600000 0  900000 600000 0  950000 600000 0  1000000 600000 0  0 650000 0  50000 650000 0  100000 650000 0  150000 650000 0  200000 650000 0  250000 650000 0  300000 650000 0  350000 650000 0  400000 650000 0  450000 650000 0  500000 650000 0  550000 650000 0  600000 650000 0  650000 650000 0  700000 650000 0  750000 650000 0  800000 650000 0  850000 650000 0  900000 650000 0  950000 650000 0  1000000 650000 0  0 700000 0  50000 700000 0  100000 700000 0  150000 700000 0  200000 700000 0  250000 700000 0  300000 700000 0  350000 700000 0  400000 700000 0  450000 700000 0  500000 700000 0  550000 700000 0  600000 700000 0  650000 700000 0  700000 700000 0  750000 700000 0  800000 700000 0  850000 700000 0  900000 700000 0  950000 700000 0  1000000 700000 0  0 750000 0  50000 750000 0  100000 750000 0  150000 750000 0  200000 750000 0  250000 750000 0  300000 750000 0  350000 750000 0  400000 750000 0  450000 750000 0  500000 750000 0  550000 750000 0  600000 750000 0  650000 750000 0  700000 750000 0  750000 750000 0  800000 750000 0  850000 750000 0  900000 750000 0  950000 750000 0  1000000 750000 0  0 800000 0  50000 800000 0  100000 800000 0  150000 800000 0  200000 800000 0  250000 800000 0  300000 800000 0  350000 800000 0  400000 800000 0  450000 800000 0  500000 800000 0  550000 800000 0  600000 800000 0  650000 800000 0  700000 800000 0  750000 800000 0  800000 800000 0  850000 800000 0  900000 800000 0  950000 800000 0  1000000 800000 0  0 850000 0  50000 850000 0  100000 850000 0  150000 850000 0  200000 850000 0  250000 850000 0  300000 850000 0  350000 850000 0  400000 850000 0  450000 850000 0  500000 850000 0  550000 850000 0  600000 850000 0  650000 850000 0  700000 850000 0  750000 850000 0  800000 850000 0  850000 850000 0  900000 850000 0  950000 850000 0  1000000 850000 0  0 900000 0  50000 900000 0  100000 900000 0  150000 900000 0  200000 900000 0  250000 900000 0  300000 900000 0  350000 900000 0  400000 900000 0  450000 900000 0  500000 900000 0  550000 900000 0  600000 900000 0  650000 900000 0  700000 900000 0  750000 900000 0  800000 900000 0  850000 900000 0  900000 900000 0  950000 900000 0  1000000 900000 0  0 950000 0  50000 950000 0  100000 950000 0  150000 950000 0  200000 950000 0  250000 950000 0  300000 950000 0  350000 950000 0  400000 950000 0  450000 950000 0  500000 950000 0  550000 950000 0  600000 950000 0  650000 950000 0  700000 950000 0  750000 950000 0  800000 950000 0  850000 950000 0  900000 950000 0  950000 950000 0  1000000 950000 0  0 1000000 0  50000 1000000 0  100000 1000000 0  150000 1000000 0  200000 1000000 0  250000 1000000 0  300000 1000000 0  350000 1000000 0  400000 1000000 0  450000 1000000 0  500000 1000000 0  550000 1000000 0  600000 1000000 0  650000 1000000 0  700000 1000000 0  750000 1000000 0  800000 1000000 0  850000 1000000 0  900000 1000000 0  950000 1000000 0  1000000 1000000 0  0 1050000 0  50000 1050000 0  100000 1050000 0  150000 1050000 0  200000 1050000 0  250000 1050000 0  300000 1050000 0  350000 1050000 0  400000 1050000 0  450000 1050000 0  500000 1050000 0  550000 1050000 0  600000 1050000 0  650000 1050000 0  700000 1050000 0  750000 1050000 0  800000 1050000 0  850000 1050000 0  900000 1050000 0  950000 1050000 0  1000000 1050000 0  0 1100000 0  50000 1100000 0  100000 1100000 0  150000 1100000 0  200000 1100000 0  250000 1100000 0  300000 1100000 0  350000 1100000 0  400000 1100000 0  450000 1100000 0  500000 1100000 0  550000 1100000 0  600000 1100000 0  650000 1100000 0  700000 1100000 0  750000 1100000 0  800000 1100000 0  850000 1100000 0  900000 1100000 0  950000 1100000 0  1000000 1100000 0  0 1150000 0  50000 1150000 0  100000 1150000 0  150000 1150000 0  200000 1150000 0  250000 1150000 0  300000 1150000 0  350000 1150000 0  400000 1150000 0  450000 1150000 0  500000 1150000 0  550000 1150000 0  600000 1150000 0  650000 1150000 0  700000 1150000 0  750000 1150000 0  800000 1150000 0  850000 1150000 0  900000 1150000 0  950000 1150000 0  1000000 1150000 0  0 1200000 0  50000 1200000 0  100000 1200000 0  150000 1200000 0  200000 1200000 0  250000 1200000 0  300000 1200000 0  350000 1200000 0  400000 1200000 0  450000 1200000 0  500000 1200000 0  550000 1200000 0  600000 1200000 0  650000 1200000 0  700000 1200000 0  750000 1200000 0  800000 1200000 0  850000 1200000 0  900000 1200000 0  950000 1200000 0  1000000 1200000 0  0 1250000 0  50000 1250000 0  100000 1250000 0  150000 1250000 0  200000 1250000 0  250000 1250000 0  300000 1250000 0  350000 1250000 0  400000 1250000 0  450000 1250000 0  500000 1250000 0  550000 1250000 0  600000 1250000 0  650000 1250000 0  700000 1250000 0  750000 1250000 0  800000 1250000 0  850000 1250000 0  900000 1250000 0  950000 1250000 0  1000000 1250000 0  0 1300000 0  50000 1300000 0  100000 1300000 0  150000 1300000 0  200000 1300000 0  250000 1300000 0  300000 1300000 0  350000 1300000 0  400000 1300000 0  450000 1300000 0  500000 1300000 0  550000 1300000 0  600000 1300000 0  650000 1300000 0  700000 1300000 0  750000 1300000 0  800000 1300000 0  850000 1300000 0  900000 1300000 0  950000 1300000 0  1000000 1300000 0  0 1350000 0  50000 1350000 0  100000 1350000 0  150000 1350000 0  200000 1350000 0  250000 1350000 0  300000 1350000 0  350000 1350000 0  400000 1350000 0  450000 1350000 0  500000 1350000 0  550000 1350000 0  600000 1350000 0  650000 1350000 0  700000 135
[...]
<PointData  Vectors="f_5975"> 
<DataArray  type="Float64"  Name="f_5975"  NumberOfComponents="3" format="ascii">-3.1278686533266454e-10 3.3802913021565826e-10 0.0000000000000000e+00  -5.8623300372434542e-10 2.8608683393913131e-10 0.0000000000000000e+00  -1.0714352533550395e-09 2.6507504642528620e-10 0.0000000000000000e+00  -1.5399984146758287e-09 2.4614024694096617e-10 0.0000000000000000e+00  -1.9689470508542007e-09 2.2350423768238948e-10 0.0000000000000000e+00  -2.3457574059134898e-09 1.9673489639309648e-10 0.0000000000000000e+00  -2.6602514915991552e-09 1.6619621088513465e-10 0.0000000000000000e+00  -2.9041940747439240e-09 1.3251769255614885e-10 0.0000000000000000e+00  -3.0712850295101412e-09 9.6480716286543454e-11 0.0000000000000000e+00  -3.1572722464331452e-09 5.8955085860119341e-11 0.0000000000000000e+00  -3.1600437042663074e-09 2.0856710354529013e-11 0.0000000000000000e+00  -3.0796720517390941e-09 -1.6885315857210735e-11 0.0000000000000000e+00  -2.9184069933880467e-09 -5.3357888093331809e-11 0.0000000000000000e+00  -2.6806155122095544e-09 -8.7692085297256844e-11 0.0000000000000000e+00  -2.3726803744579653e-09 -1.1909406730763085e-10 0.0000000000000000e+00  -2.0029221989568928e-09 -1.4689211966371169e-10 0.0000000000000000e+00  -1.5818903232996365e-09 -1.7065121374575362e-10 0.0000000000000000e+00  -1.1246107935206502e-09 -1.9049919155862414e-10 0.0000000000000000e+00  -6.6125472991533511e-10 -2.0678927576172648e-10 0.0000000000000000e+00  -2.8256588408165117e-10 -2.0143527643210126e-10 0.0000000000000000e+00  -1.2332963076102409e-10 -1.1858352930242660e-10 0.0000000000000000e+00  -2.6367988176613762e-10 5.8983386582440725e-10 0.0000000000000000e+00  -4.9883238893771255e-10 5.0445741795066719e-10 0.0000000000000000e+00  -8.9187828558985922e-10 5.0738585597436198e-10 0.0000000000000000e+00  -1.3138569186805179e-09 4.8341963811427224e-10 0.0000000000000000e+00  -1.7149298908925915e-09 4.4097221124548011e-10 0.0000000000000000e+00  -2.0763616076432367e-09 3.8486233378834249e-10 0.0000000000000000e+00  -2.3860239363519964e-09 3.1790757119612237e-10 0.0000000000000000e+00  -2.6346937470739260e-09 2.4242202331641045e-10 0.0000000000000000e+00  -2.8153699496918822e-09 1.6064690565148225e-10 0.0000000000000000e+00  -2.9231289267398314e-09 7.4860402915872973e-11 0.0000000000000000e+00  -2.9551244759699617e-09 -1.2613184499787231e-11 0.0000000000000000e+00  -2.9106061965027703e-09 -9.9430104963772451e-11 0.0000000000000000e+00  -2.7909202862240838e-09 -1.8326528873710529e-10 0.0000000000000000e+00  -2.5994857570326168e-09 -2.6184973530270218e-10 0.0000000000000000e+00  -2.3417573153684673e-09 -3.3299545210847163e-10 0.0000000000000000e+00  -2.0252252469046312e-09 -3.9458563006081582e-10 0.0000000000000000e+00  -1.6596347129022706e-09 -4.4446208737636341e-10 0.0000000000000000e+00  -1.2581210829237979e-09 -4.7989932480629142e-10 0.0000000000000000e+00  -8.4219268813461203e-10 -4.9472818882787908e-10 0.0000000000000000e+00  -4.6417981747713544e-10 -4.6500550913553555e-10 0.0000000000000000e+00  -2.1432936314524369e-10 -2.6608256005432649e-10 0.0000000000000000e+00  -2.5704313171365954e-10 1.0374773388961181e-09 0.0000000000000000e+00  -5.1060597445699565e-10 8.8059773737809006e-10 0.0000000000000000e+00  -8.8977507861277169e-10 8.7041383667173721e-10 0.0000000000000000e+00  -1.2829367595225416e-09 8.3070360305736423e-10 0.0000000000000000e+00  -1.6549305534431424e-09 7.6027300094824597e-10 0.0000000000000000e+00  -1.9902783783507120e-09 6.6492709954034163e-10 0.0000000000000000e+00  -2.2778694288537550e-09 5.4964123147017082e-10 0.0000000000000000e+00  -2.5089640468688183e-09 4.1871965036555398e-10 0.0000000000000000e+00  -2.6768461466437448e-09 2.7628667029106391e-10 0.0000000000000000e+00  -2.7767899089619401e-09 1.2647604018901982e-10 0.0000000000000000e+00  -2.8060695575628179e-09 -2.6529802074006085e-11 0.0000000000000000e+00  -2.7639717144981559e-09 -1.7852499909237497e-10 0.0000000000000000e+00  -2.6517950477180767e-09 -3.2532924061395804e-10 0.0000000000000000e+00  -2.4728332303198626e-09 -4.6283481940761203e-10 0.0000000000000000e+00  -2.2323508676658022e-09 -5.8702492619567171e-10 0.0000000000000000e+00  -1.9375902202698398e-09 -6.9391557992434428e-10 0.0000000000000000e+00  -1.5979367471977710e-09 -7.7931050033377299e-10 0.0000000000000000e+00  -1.2257231801098191e-09 -8.3808433317716922e-10 0.0000000000000000e+00  -8.3948121534680097e-10 -8.6220196095691957e-10 0.0000000000000000e+00  -4.8017956143290253e-10 -8.3848579768288044e-10 0.0000000000000000e+00  -2.3091201081748033e-10 -6.1135510206784062e-10 0.0000000000000000e+00  -2.6543646900119550e-10 1.4786574343255200e-09 0.0000000000000000e+00  -5.0650669116468951e-10 1.3054834440599256e-09 0.0000000000000000e+00  -8.7918179466115248e-10 1.2671353541780616e-09 0.0000000000000000e+00  -1.2625897358063793e-09 1.2016560223514880e-09 0.0000000000000000e+00  -1.6212215240204920e-09 1.0987879394699162e-09 0.0000000000000000e+00  -1.9420485193329371e-09 9.6192327795773372e-10 0.0000000000000000e+00  -2.2160198494735404e-09 7.9655798145742336e-10 0.0000000000000000e+00  -2.4355349521438620e-09 6.0845355611817119e-10 0.0000000000000000e+00  -2.5945158710653154e-09 4.0347261309816021e-10 0.0000000000000000e+00  -2.6886077855585097e-09 1.8759613732555946e-10 0.0000000000000000e+00  -2.7152976259841774e-09 -3.3093982580654731e-11 0.0000000000000000e+00  -2.6739700114033076e-09 -2.5247116891972363e-10 0.0000000000000000e+00  -2.5659213308133035e-09 -4.6443808628641273e-10 0.0000000000000000e+00  -2.3943415766042133e-09 -6.6299682219042129e-10 0.0000000000000000e+00  -2.1642691499785898e-09 -8.4229128183269228e-10 0.0000000000000000e+00  -1.8825311969522308e-09 -9.9658999839544432e-10 0.0000000000000000e+00  -1.5577338250827008e-09 -1.1201727431077245e-09 0.0000000000000000e+00  -1.2006475188718502e-09 -1.2071351686247819e-09 0.0000000000000000e+00  -8.2672761162005587e-10 -1.2512571051497754e-09 0.0000000000000000e+00  -4.7391038974382005e-10 -1.2468881895377341e-09 0.0000000000000000e+00  -2.3585259325121745e-10 -1.0317459338159804e-09 0.0000000000000000e+00  -2.8207234425846866e-10 1.9108082992005492e-09 0.0000000000000000e+00  -5.0602962158525465e-10 1.7307350790318128e-09 0.0000000000000000e+00  -8.7326959282424386e-10 1.6684481973468957e-09 0.0000000000000000e+00  -1.2530369655844454e-09 1.5737025192249871e-09 0.0000000000000000e+00  -1.6070513265867596e-09 1.4355241084175420e-09 0.0000000000000000e+00  -1.9219699517404849e-09 1.2559786597781972e-09 0.0000000000000000e+00  -2.1895478078663221e-09 1.0405416930235481e-09 0.0000000000000000e+00  -2.4030713196213901e-09 7.9592451868920674e-10 0.0000000000000000e+00  -2.5570993013362759e-09 5.2943161379790387e-10 0.0000000000000000e+00  -2.6476874050571432e-09 2.4872260697262209e-10 0.0000000000000000e+00  -2.6725677463488410e-09 -3.8328056445405812e-11 0.0000000000000000e+00  -2.6312431443018140e-09 -3.2375461535464244e-10 0.0000000000000000e+00  -2.5250168198451720e-09 -5.9962145033723553e-10 0.0000000000000000e+00  -2.3569703161405599e-09 -8.5813901042382029e-10 0.0000000000000000e+00  -2.1318919084962950e-09 -1.0917672449396595e-09 0.0000000000000000e+00  -1.8561595067115346e-09 -1.2933067713949508e-09 0.0000000000000000e+00  -1.5376456870990672e-09 -1.4560115552345791e-09 0.0000000000000000e+00  -1.1860945492860437e-09 -1.5738545237704720e-09 0.0000000000000000e+00  -8.1626762835958153e-10 -1.6420123432790578e-09 0.0000000000000000e+00  -4.6868391190127073e-10 -1.6571842325733453e-09 0.0000000000000000e+00  -2.4827400882073336e-10 -1.4563771433437951e-09 0.0000000000000000e+00  -3.0548204009774530e-10 2.3392659212184378e-09 0.0000000000000000e+00  -5.1168774128812740e-10 2.1530850549596175e-09 0.0000000000000000e+00  -8.7565789407024794e-10 2.0707284119477350e-09 0.0000000000000000e+00  -1.2554848604049242e-09 1.9465841394199739e-09 0.0000000000000000e+00  -1.6098502953564244e-09 1.7716752798933682e-09 0.0000000000000000e+00  -1.9243369497137548e-09 1.5482961955307632e-09 0.0000000000000000e+00  -2.1906436452347077e-09 1.2822866631483395e-09 0.0000000000000000e+00  -2.4024125239855868e-09 9.8122597978407134e-10 0.0000000000000000e+00  -2.5546082646902181e-09 6.5369504195889124e-10 0.0000000000000000e+00  -2.6436107844635715e-09 3.0888581335361262e-10 0.0000000000000000e+00  -2.6673687782758942e-09 -4.3653827365063857e-11 0.0000000000000000e+00  -2.6254968361614808e-09 -3.9422286476799678e-10 0.0000000000000000e+00  -2.5193090095683283e-09 -7.3315012182541847e-10 0.0000000000000000e+00  -2.3517943778582514e-09 -1.0509708603240197e-09 0.0000000000000000e+00  -2.1275363549434890e-09 -1.3386070988314896e-09 0.0000000000000000e+00  -1.8525891379215724e-09 -1.5875720240889139e-09 0.0000000000000000e+00  -1.5344228964454383e-09 -1.7902482479926868e-09 0.0000000000000000e+00  -1.1825361276984562e-09 -1.9403318028447116e-09 0.0000000000000000e+00  -8.1242404654900209e-10 -2.0332628262545647e-09 0.0000000000000000e+00  -4.6853918463563181e-10 -2.0658837718138581e-09 0.0000000000000000e+00  -2.6720424304816721e-10 -1.8747639402551811e-09 0.0000000000000000e+00  -3.3518055179103669e-10 2.7688703191519099e-09 0.0000000000000000e+00  -5.2317216655963084e-10 2.5762128552855417e-09 0.0000000000000000e+00  -8.8620551546356428e-10 2.4754942946802611e-09 0.0000000000000000e+00  -1.2689195271951213e-09 2.3226307046634529e-09 0.0000000000000000e+00  -1.6267807241533652e-09 2.1103825585632565e-09 0.0000000000000000e+00  -1.9442096929072523e-09 1.8421659155474649e-09 0.0000000000000000e+00  -2.2125155148090525e-09 1.5246974909045831e-09 0.0000000000000000e+00  -2.4253484736780533e-09 1.1665877852665060e-09 0.0000000000000000e+00  -2.5778468265093142e-09 7.7768935731600154e-10 0.0000000000000000e+00  -2.6665890951482202e-09 3.6866038784076617e-10 0.0000000000000000e+00  -2.6896813418297867e-09 -4.9361356759206301e-11 0.0000000000000000e+00  -2.6468277830307564e-09 -4.6502674709752771e-10 0.0000000000000000e+00  -2.5393562265527841e-09 -8.6701697921504919e-10 0.0000000000000000e+00  -2.3701949932770478e-09 -1.2442799428422994e-09 0.0000000000000000e+00  -2.1438036877408358e-09 -1.5862804397343577e-09 0.0000000000000000e+00  -1.8660844558319302e-09 -1.8832886941719514e-09 0.0000000000000000e+00  -1.5444255226625973e-09 -2.1267419288941387e-09 0.0000000000000000e+00  -1.1885774201157680e-09 -2.3097085069282132e-09 0.0000000000000000e+00  -8.1531021234941385e-10 -2.4271542589600629e-09 0.0000000000000000e+00  -4.7337088671795291e-10 -2.4753209262460917e-09 0.0000000000000000e+00  -2.9174308752129268e-10 -2.2893270675000592e-09 0.0000000000000000e+00  -3.7102085665932044e-10 3.2032542123517084e-09 0.0000000000000000e+00  -5.3940155368276763e-10 3.0036323207847362e-09 0.0000000000000000e+00  -9.0311932455391873e-10 2.8852368498215644e-09 0.0000000000000000e+00  -1.2906656799505309e-09 2.7040120043915692e-09 0.0000000000000000e+00  -1.6539154426760043e-09 2.4540097165015507e-09 0.0000000000000000e+00  -1.9761531657536409e-09 2.1400325728987430e-09 0.0000000000000000e+00  -2.2482368643417343e-09 1.7700249251036807e-09 0.0000000000000000e+00  -2.4636833603506687e-09 1.3538421482602378e-09 0.0000000000000000e+00  -2.6176692569668856e-09 9.0268885180152778e-10 0.0000000000000000e+00  -2.7068795383883871e-09 4.2868871019730541e-10 0.0000000000000000e+00  -2.7295257469036757e-09 -5.5473182447464805e-11 0.0000000000000000e+00  -2.6853785786819865e-09 -5.3685990346130141e-10 0.0000000000000000e+00  -2.5757793999381395e-09 -1.0025673118511326e-09 0.0000000000000000e+00  -2.4036228926753303e-09 -1.4400061902857035e-09 0.0000000000000000e+00  -2.1733135818816990e-09 -1.8372036234822470e-09 0.0000000000000000e+00  -1.8907308851342124e-09 -2.1831443693996412e-09 0.0000000000000000e+00  -1.5633782312545586e-09 -2.4681685245987447e-09 0.0000000000000000e+00  -1.2014868678774116e-09 -2.6844177064909953e-09 0.0000000000000000e+00  -8.2328328499456018e-10 -2.8260004958008124e-09 0.0000000000000000e+00  -4.8211833515051142e-10 -2.8883380978499485e-09 0.0000000000000000e+00  -3.2154812468586184e-10 -2.7041278803077343e-09 0.0000000000000000e+00  -4.1303665554883174e-10 3.6445149425821021e-09 0.0000000000000000e+00  -5.5897089344394985e-10 3.4376995437497386e-09 0.0000000000000000e+00  -9.2377264533152841e-10 3.3017453423103899e-09 0.0000000000000000e+00  -1.3169334117622299e-09 3.0920811112241331e-09 0.0000000000000000e+00  -1.6862234049172873e-09 2.8037846773490133e-09 0.0000000000000000e+00  -2.0138026184298821e-09 2.4430950120135043e-09 0.0000000000000000e+00  -2.2901243810350809e-09 2.0193815711409636e-09 0.0000000000000000e+00  -2.5085694674145122e-09 1.5439190534512011e-09 0.0000000000000000e+00  -2.6643245593272435e-09 1.0293629466770237e-09 0.0000000000000000e+00  -2.7541529879361599e-09 4.8933066363399525e-10 0.0000000000000000e+00  -2.7763517121120099e-09 -6.1965106349227447e-11 0.0000000000000000e+00  -2.7307446080162332e-09 -6.1004321345915034e-10 0.0000000000000000e+00  -2.6186796170843549e-09 -1.1404591718130811e-09 0.0000000000000000e+00  -2.4430220035038787e-09 -1.6391117526587209e-09 0.0000000000000000e+00  -2.2081458561578939e-09 -2.0925739724084373e-09 0.0000000000000000e+00  -1.9199599963808946e-09 -2.4884658069058461e-09 0.0000000000000000e+00  -1.5861562082842005e-09 -2.8158736317271671e-09 0.0000000000000000e+00  -1.2175153637363733e-09 -3.0657942717715887e-09 0.0000000000000000e+00  -8.3379375644005584e-10 -3.2312815477273967e-09 0.0000000000000000e+00  -4.9334358404122790e-10 -3.3068849565826193e-09 0.0000000000000000e+00  -3.5651326590013811e-10 -3.1222767129721850e-09 0.0000000000000000e+00  -4.6137377659877711e-10 4.0930006157563224e-09 0.0000000000000000e+00  -5.8023015258076310e-10 3.8792635036399653e-09 0.0000000000000000e+00  -9.4493160839919076e-10 3.7255044844796017e-09 0.0000000000000000e+00  -1.3430030349675131e-09 3.4869723172529228e-09 0.0000000000000000e+00  -1.7175438230666419e-09 3.1596505846937330e-09 0.0000000000000000e+00  -2.0495809190025660e-09 2.7512441332000174e-09 0.0000000000000000e+00  -2.3292601693885146e-09 2.2726699950905501e-09 0.0000000000000000e+00  -2.5499156080318775e-09 1.7367516853615710e-09 0.0000000000000000e+00  -2.7068084471739006e-09 1.1576789663732401e-09 0.0000000000000000e+00  -2.7968230404731806e-09 5.5058729849344357e-10 0.0000000000000000e+00  -2.8183641778589830e-09 -6.8806582682542742e-11 0.0000000000000000e+00  -2.7713103488635164e-09 -6.8452634431382356e-10 0.0000000000000000e+00  -2.6569979699781518e-09 -1.2806355373847250e-09 0.0000000000000000e+00  -2.4782313317252183e-09 -1.8415429920392890e-09 0.0000000000000000e+00  -2.2393184118755264e-09 -2.3523417683019049e-09 0.0000000000000000e+00  -1.9461653223588651e-09 -2.7992002074365114e-09 0.0000000000000000e+00  -1.6066245260473606e-09 -3.1698067745219372e-09 0.0000000000000000e+00  -1.2320044487851722e-09 -3.4538440837481428e-09 0.0000000000000000e+00  -8.4363606167183244e-10 -3.6431852038650467e-09 0.0000000000000000e+00  -5.0533701778949681e-10 -3.7314972652167857e-09 0.0000000000000000e+00  -3.9664997739669721e-10 -3.5453252167525092e-09 0.0000000000000000e+00  -5.1625346771092872e-10 4.5470548917897628e-09 0.0000000000000000e+00  -6.0125135885481324e-10 4.3273671715984096e-09 0.0000000000000000e+00  -9.6273936296552539e-10 4.1553211587603700e-09 0.0000000000000000e+00  -1.3631810838701720e-09 3.8872458404845867e-09 0.0000000000000000e+00  -1.7404341382410875e-09 3.5200315151152715e-09 0.0000000000000000e+00  -2.0743884660100231e-09 3.0629182635379083e-09 0.0000000000000000e+00  -2.3550252409619819e-09 2.5284807757888157e-09 0.0000000000000000e+00  -2.5757982863710703e-09 1.9311949511555603e-09 0.0000000000000000e+00  -2.7321934110747516e-09 1.2868417726707471e-09 0.0000000000000000e+00  -2.8213314517056769e-09 6.1207069893231554e-10 0.0000000000000000e+00  -2.8417945497570717e-09 -7.5953535962114410e-11 0.0000000000000000e+00  -2.7935330913943009e-09 -7.5984311163494537e-10 0.0000000000000000e+00  -2.6778375651204451e-09 -1.4222495656170980e-09 0.0000000000000000e+00  -2.4973734983822116e-09 -2.0461370053728487e-09 0.0000000000000000e+00  -2.2562759349700120e-09 -2.6151053463164992e-09 0.0000000000000000e+00  -1.9603289753701981e-09 -3.1137901064048135e-09 0.0000000000000000e+00  -1.6174301112272806e-09 -3.5283436560615586e-09 0.0000000000000000e+00  -1.2393281485426324e-09 -3.8469752463656579e-09 0.0000000000000000e+00  -8.4895858403240365e-10 -4.0602572387429881e-09 0.0000000000000000e+00  -5.1610022552657230e-10 -4.1609572846372390e-09 0.0000000000000000e+00  -4.4204081619758104e-10 -3.9730094239664729e-09 0.0000000000000000e+00  -5.7795010009525418e-10 5.0026789182183250e-09 0.0000000000000000e+00  -6.1975407323760269e-10 4.7789113038816112e-09 0.0000000000000000e+00  -9.7259445789392564e-10 4.5879505505473928e-09 0.0000000000000000e+00  -1.3706209956851005e-09 4.2895075205564276e-09 0.0000000000000000e+00  -1.7458988216934199e-09 3.8814977243272850e-09 0.0000000000000000e+00  -2.0772085813181189e-09 3.3748322377374072e-09 0.0000000000000000e+00  -2.3545721656373498e-09 2.7838791180021151e-09 0.0000000000000000e+00  -2.5718162310935500e-09 2.1248642736060772e-09 0.0000000000000000e+00  -2.7248943987431204e-09 1.4151871256968683e-09 0.0000000000000000e+00  -2.8113598471997823e-09 6.7295803968734980e-10 0.0000000000000000e+00  -2.8300941088935384e-09 -8.3329505784368836e-11 0.0000000000000000e+00  -2.7811527179481741e-09 -8.3502936807914594e-10 0.0000000000000000e+00  -2.6657229319270258e-09 -1.5635268154204944e-09 0.0000000000000000e+00  -2.4861953871744518e-09 -2.2504389818646143e-09 0.0000000000000000e+00  -2.2463403817076655e-09 -2.8778921727885853e-09 0.0000000000000000e+00  -1.9516030233092659e-09 -3.4289190127431047e-09 0.0000000000000000e+00  -1.6097183084618473e-09 -3.8879894984013086e-09 0.0000000000000000e+00  -1.2327226143162399e-09 -4.2416565453074595e-09 0.0000000000000000e+00  -8.4516281624521457e-10 -4.4790359643105702e-09 0.0000000000000000e+00  -5.2328110319008078e-10 -4.5919506359019653e-09 0.0000000000000000e+00  -4.9281516060619146e-10 -4.4029871593021587e-09 0.0000000000000000e+00  -6.4677729656145598e-10 5.4530924071308169e-09 0.0000000000000000e+00  -6.3300966122061139e-10 5.2282415214434817e-09 0.0000000000000000e+00  -9.6897257810244285e-10 5.0176581865328479e-09 0.0000000000000000e+00  -1.3570559763608840e-09 4.6879566023933873e-09 0.0000000000000000e+00  -1.7230162209141876e-09 4.2383279008089214e-09 0.0000000000000000e+00  -2.0446100792982460e-09 3.6815815744283674e-09 0.0000000000000000e+00  -2.3121969726606234e-09 3.0340687195227703e-09 0.0000000000000000e+00  -2.5203424270722408e-09 2.3138728481457585e-09 0.0000000000000000e+00  -2.6658266934005561e-09 1.5400050708835434e-09 0.0000000000000000e+00  -2.7469286585792093e-09 7.3191155831191382e-10 0.0000000000000000e+00  -2.7630136597429058e-09 -9.0803976872410196e-11 0.0000000000000000e+00  -2.7142924742213733e-09 -9.0850203247661883e-10 0.0000000000000000e+00  -2.6017603215077824e-09 -1.7015549609506015e-09 0.0000000000000000e+00  -2.4273217234387119e-09 -2.4504179567975722e-09 0.0000000000000000e+00  -2.1940836779119751e-09 -3.1358175179744226e-09 0.0000000000000000e+00  -1.9068150664509981e-09 -3.7391277551387444e-09 0.0000000000000000e+00  -1.5727690534753371e-09 -4.2429650320308569e-09 0.0000000000000000e+00  -1.2040346565159675e-09 -4.6319860687415596e-09 0.0000000000000000e+00  -8.2673945075685631e-10 -4.8936220223355997e-09 0.0000000000000000e+00  -5.2408262467264536e-10 -5.0186586788291846e-09 0.0000000000000000e+00  -5.4913412104053127e-10 -4.8304958257751680e-09 0.0000000000000000e+00  -7.2308151113016431e-10 5.8881784252976880e-09 0.0000000000000000e+00  -6.3773060576146673e-10 5.6666344657035529e-09 0.0000000000000000e+00  -9.4520784860308574e-10 5.4356849257576378e-09 0.0000000000000000e+00  -1.3124621533972077e-09 5.0738289823020842e-09 0.0000000000000000e+00  -1.6584695065629773e-09 4.5819507227280960e-09 0.0000000000000000e+00  -1.96013