<?xml version="1.0"?>
<VTKFile type="UnstructuredGrid"  version="0.1"  >
<UnstructuredGrid>
<Piece  NumberOfPoints="651" NumberOfCells="1200">
<Points>
<DataArray  type="Float64"  NumberOfComponents="3"  format="ascii">0 0 0  50000 0 0  100000 0 0  150000 0 0  200000 0 0  250000 0 0  300000 0 0  350000 0 0  400000 0 0  450000 0 0  500000 0 0  550000 0 0  600000 0 0  650000 0 0  700000 0 0  750000 0 0  800000 0 0  850000 0 0  900000 0 0  950000 0 0  1000000 0 0  0 50000 0  50000 50000 0  100000 50000 0  150000 50000 0  200000 50000 0  250000 50000 0  300000 50000 0  350000 50000 0  400000 50000 0  450000 50000 0  500000 50000 0  550000 50000 0  600000 50000 0  650000 50000 0  700000 50000 0  750000 50000 0  800000 50000 0  850000 50000 0  900000 50000 0  950000 50000 0  1000000 50000 0  0 100000 0  50000 100000 0  100000 100000 0  150000 100000 0  200000 100000 0  250000 100000 0  300000 100000 0  350000 100000 0  400000 100000 0  450000 100000 0  500000 100000 0  550000 100000 0  600000 100000 0  650000 100000 0  700000 100000 0  750000 100000 0  800000 100000 0  850000 100000 0  900000 100000 0  950000 100000 0  1000000 100000 0  0 150000 0  50000 150000 0  100000 150000 0  150000 150000 0  200000 150000 0  250000 150000 0  300000 150000 0  350000 150000 0  400000 150000 0  450000 150000 0  500000 150000 0  550000 150000 0  600000 150000 0  650000 150000 0  700000 150000 0  750000 150000 0  800000 150000 0  850000 150000 0  900000 150000 0  950000 150000 0  1000000 150000 0  0 200000 0  50000 200000 0  100000 200000 0  150000 200000 0  200000 200000 0  250000 200000 0  300000 200000 0  350000 200000 0  400000 200000 0  450000 200000 0  500000 200000 0  550000 200000 0  600000 200000 0  650000 200000 0  700000 200000 0  750000 200000 0  800000 200000 0  850000 200000 0  900000 200000 0  950000 200000 0  1000000 200000 0  0 250000 0  50000 250000 0  100000 250000 0  150000 250000 0  200000 250000 0  250000 250000 0  300000 250000 0  350000 250000 0  400000 250000 0  450000 250000 0  500000 250000 0  550000 250000 0  600000 250000 0  650000 250000 0  700000 250000 0  750000 250000 0  800000 250000 0  850000 250000 0  900000 250000 0  950000 250000 0  1000000 250000 0  0 300000 0  50000 300000 0  100000 300000 0  150000 300000 0  200000 300000 0  250000 300000 0  300000 300000 0  350000 300000 0  400000 300000 0  450000 300000 0  500000 300000 0  550000 300000 0  600000 300000 0  650000 300000 0  700000 300000 0  750000 300000 0  800000 300000 0  850000 300000 0  900000 300000 0  950000 300000 0  1000000 300000 0  0 350000 0  50000 350000 0  100000 350000 0  150000 350000 0  200000 350000 0  250000 350000 0  300000 350000 0  350000 350000 0  400000 350000 0  450000 350000 0  500000 350000 0  550000 350000 0  600000 350000 0  650000 350000 0  700000 350000 0  750000 350000 0  800000 350000 0  850000 350000 0  900000 350000 0  950000 350000 0  1000000 350000 0  0 400000 0  50000 400000 0  100000 400000 0  150000 400000 0  200000 400000 0  250000 400000 0  300000 400000 0  350000 400000 0  400000 400000 0  450000 400000 0  500000 400000 0  550000 400000 0  600000 400000 0  650000 400000 0  700000 400000 0  750000 400000 0  800000 400000 0  850000 400000 0  900000 400000 0  950000 400000 0  1000000 400000 0  0 450000 0  50000 450000 0  100000 450000 0  150000 450000 0  200000 450000 0  250000 450000 0  300000 450000 0  350000 450000 0  400000 450000 0  450000 450000 0  500000 450000 0  550000 450000 0  600000 450000 0  650000 450000 0  700000 450000 0  750000 450000 0  800000 450000 0  850000 450000 0  900000 450000 0  950000 450000 0  1000000 450000 0  0 500000 0  50000 500000 0  100000 500000 0  150000 500000 0  200000 500000 0  250000 500000 0  300000 500000 0  350000 500000 0  400000 500000 0  450000 500000 0  500000 500000 0  550000 500000 0  600000 500000 0  650000 500000 0  700000 500000 0  750000 500000 0  800000 500000 0  850000 500000 0  900000 500000 0  950000 500000 0  1000000 500000 0  0 550000 0  50000 550000 0  100000 550000 0  150000 550000 0  200000 550000 0  250000 550000 0  300000 550000 0  350000 550000 0  400000 550000 0  450000 550000 0  500000 550000 0  550000 550000 0  600000 550000 0  650000 550000 0  700000 550000 0  750000 550000 0  800000 550000 0  850000 550000 0  900000 550000 0  950000 550000 0  1000000 550000 0  0 600000 0  50000 600000 0  100000 600000 0  150000 600000 0  200000 600000 0  250000 600000 0  300000 600000 0  350000 600000 0  400000 600000 0  450000 600000 0  500000 600000 0  550000 600000 0  600000 600000 0  650000 600000 0  700000 600000 0  750000 600000 0  800000 600000 0  850000 600000 0  900000 600000 0  950000 600000 0  1000000 600000 0  0 650000 0  50000 650000 0  100000 650000 0  150000 650000 0  200000 650000 0  250000 650000 0  300000 650000 0  350000 650000 0  400000 650000 0  450000 650000 0  500000 650000 0  550000 650000 0  600000 650000 0  650000 650000 0  700000 650000 0  750000 650000 0  800000 650000 0  850000 650000 0  900000 650000 0  950000 650000 0  1000000 650000 0  0 700000 0  50000 700000 0  100000 700000 0  150000 700000 0  200000 700000 0  250000 700000 0  300000 700000 0  350000 700000 0  400000 700000 0  450000 700000 0  500000 700000 0  550000 700000 0  600000 700000 0  650000 700000 0  700000 700000 0  750000 700000 0  800000 700000 0  850000 700000 0  900000 700000 0  950000 700000 0  1000000 700000 0  0 750000 0  50000 750000 0  100000 750000 0  150000 750000 0  200000 750000 0  250000 750000 0  300000 750000 0  350000 750000 0  400000 750000 0  450000 750000 0  500000 750000 0  550000 750000 0  600000 750000 0  650000 750000 0  700000 750000 0  750000 750000 0  800000 750000 0  850000 750000 0  900000 750000 0  950000 750000 0  1000000 750000 0  0 800000 0  50000 800000 0  100000 800000 0  150000 800000 0  200000 800000 0  250000 800000 0  300000 800000 0  350000 800000 0  400000 800000 0  450000 800000 0  500000 800000 0  550000 800000 0  600000 800000 0  650000 800000 0  700000 800000 0  750000 800000 0  800000 800000 0  850000 800000 0  900000 800000 0  950000 800000 0  1000000 800000 0  0 850000 0  50000 850000 0  100000 850000 0  150000 850000 0  200000 850000 0  250000 850000 0  300000 850000 0  350000 850000 0  400000 850000 0  450000 850000 0  500000 850000 0  550000 850000 0  600000 850000 0  650000 850000 0  700000 850000 0  750000 850000 0  800000 850000 0  850000 850000 0  900000 850000 0  950000 850000 0  1000000 850000 0  0 900000 0  50000 900000 0  100000 900000 0  150000 900000 0  200000 900000 0  250000 900000 0  300000 900000 0  350000 900000 0  400000 900000 0  450000 900000 0  500000 900000 0  550000 900000 0  600000 900000 0  650000 900000 0  700000 900000 0  750000 900000 0  800000 900000 0  850000 900000 0  900000 900000 0  950000 900000 0  1000000 900000 0  0 950000 0  50000 950000 0  100000 950000 0  150000 950000 0  200000 950000 0  250000 950000 0  300000 950000 0  350000 950000 0  400000 950000 0  450000 950000 0  500000 950000 0  550000 950000 0  600000 950000 0  650000 950000 0  700000 950000 0  750000 950000 0  800000 950000 0  850000 950000 0  900000 950000 0  950000 950000 0  1000000 950000 0  0 1000000 0  50000 1000000 0  100000 1000000 0  150000 1000000 0  200000 1000000 0  250000 1000000 0  300000 1000000 0  350000 1000000 0  400000 1000000 0  450000 1000000 0  500000 1000000 0  550000 1000000 0  600000 1000000 0  650000 1000000 0  700000 1000000 0  750000 1000000 0  800000 1000000 0  850000 1000000 0  900000 1000000 0  950000 1000000 0  1000000 1000000 0  0 1050000 0  50000 1050000 0  100000 1050000 0  150000 1050000 0  200000 1050000 0  250000 1050000 0  300000 1050000 0  350000 1050000 0  400000 1050000 0  450000 1050000 0  500000 1050000 0  550000 1050000 0  600000 1050000 0  650000 1050000 0  700000 1050000 0  750000 1050000 0  800000 1050000 0  850000 1050000 0  900000 1050000 0  950000 1050000 0  1000000 1050000 0  0 1100000 0  50000 1100000 0  100000 1100000 0  150000 1100000 0  200000 1100000 0  250000 1100000 0  300000 1100000 0  350000 1100000 0  400000 1100000 0  450000 1100000 0  500000 1100000 0  550000 1100000 0  600000 1100000 0  650000 1100000 0  700000 1100000 0  750000 1100000 0  800000 1100000 0  850000 1100000 0  900000 1100000 0  950000 1100000 0  1000000 1100000 0  0 1150000 0  50000 1150000 0  100000 1150000 0  150000 1150000 0  200000 1150000 0  250000 1150000 0  300000 1150000 0  350000 1150000 0  400000 1150000 0  450000 1150000 0  500000 1150000 0  550000 1150000 0  600000 1150000 0  650000 1150000 0  700000 1150000 0  750000 1150000 0  800000 1150000 0  850000 1150000 0  900000 1150000 0  950000 1150000 0  1000000 1150000 0  0 1200000 0  50000 1200000 0  100000 1200000 0  150000 1200000 0  200000 1200000 0  250000 1200000 0  300000 1200000 0  350000 1200000 0  400000 1200000 0  450000 1200000 0  500000 1200000 0  550000 1200000 0  600000 1200000 0  650000 1200000 0  700000 1200000 0  750000 1200000 0  800000 1200000 0  850000 1200000 0  900000 1200000 0  950000 1200000 0  1000000 1200000 0  0 1250000 0  50000 1250000 0  100000 1250000 0  150000 1250000 0  200000 1250000 0  250000 1250000 0  300000 1250000 0  350000 1250000 0  400000 1250000 0  450000 1250000 0  500000 1250000 0  550000 1250000 0  600000 1250000 0  650000 1250000 0  700000 1250000 0  750000 1250000 0  800000 1250000 0  850000 1250000 0  900000 1250000 0  950000 1250000 0  1000000 1250000 0  0 1300000 0  50000 1300000 0  100000 1300000 0  150000 1300000 0  200000 1300000 0  250000 1300000 0  300000 1300000 0  350000 1300000 0  400000 1300000 0  450000 1300000 0  500000 1300000 0  550000 1300000 0  600000 1300000 0  650000 1300000 0  700000 1300000 0  750000 1300000 0  800000 1300000 0  850000 1300000 0  900000 1300000 0  950000 1300000 0  1000000 1300000 0  0 1350000 0  50000 1350000 0  100000 1350000 0  150000 1350000 0  200000 1350000 0  250000 1350000 0  300000 1350000 0  350000 1350000 0  400000 1350000 0  450000 1350000 0  500000 1350000 0  550000 1350000 0  600000 1350000 0  650000 1350000 0  700000 135
[...]
<PointData  Vectors="f_5975"> 
<DataArray  type="Float64"  Name="f_5975"  NumberOfComponents="3" format="ascii">-3.2279622707895908e-10 2.9174844083175878e-10 0.0000000000000000e+00  -5.9635395827766994e-10 2.3794068345057161e-10 0.0000000000000000e+00  -1.0839326887363306e-09 2.1359892758169538e-10 0.0000000000000000e+00  -1.5560231583843707e-09 1.9190766649188646e-10 0.0000000000000000e+00  -1.9882070500415542e-09 1.6730323834778501e-10 0.0000000000000000e+00  -2.3677428964585573e-09 1.3911920787041194e-10 0.0000000000000000e+00  -2.6845259568000917e-09 1.0761230865425112e-10 0.0000000000000000e+00  -2.9305124703978285e-09 7.3369381973973996e-11 0.0000000000000000e+00  -3.0996048839484409e-09 3.7149130721047903e-11 0.0000000000000000e+00  -3.1877010295307085e-09 -1.9481154996187557e-13 0.0000000000000000e+00  -3.1927483004196573e-09 -3.7759629921084811e-11 0.0000000000000000e+00  -3.1147681365703326e-09 -7.4626087338537755e-11 0.0000000000000000e+00  -2.9558433847941165e-09 -1.0988628696705932e-10 0.0000000000000000e+00  -2.7200676825017640e-09 -1.4267088235727418e-10 0.0000000000000000e+00  -2.4134674982058291e-09 -1.7218198504199283e-10 0.0000000000000000e+00  -2.0439653450035004e-09 -1.9775079935314738e-10 0.0000000000000000e+00  -1.6217479996003670e-09 -2.1898120010025884e-10 0.0000000000000000e+00  -1.1617025308783199e-09 -2.3612983408054039e-10 0.0000000000000000e+00  -6.9453882001024699e-10 -2.4976294858632924e-10 0.0000000000000000e+00  -3.1332865516318381e-10 -2.4095014524705890e-10 0.0000000000000000e+00  -1.5271422954328275e-10 -1.5529515895814078e-10 0.0000000000000000e+00  -2.7524980393553856e-10 5.4089428837804157e-10 0.0000000000000000e+00  -4.9311241429666205e-10 4.8353758678887078e-10 0.0000000000000000e+00  -8.7517668785742769e-10 4.9731290616519921e-10 0.0000000000000000e+00  -1.2971660806421842e-09 4.7387127893473360e-10 0.0000000000000000e+00  -1.7000497396913938e-09 4.3129469604889841e-10 0.0000000000000000e+00  -2.0636025496248184e-09 3.7514147753186209e-10 0.0000000000000000e+00  -2.3758378322245856e-09 3.0832873831336920e-10 0.0000000000000000e+00  -2.6276485486774189e-09 2.3316050789253358e-10 0.0000000000000000e+00  -2.8120628257184018e-09 1.5183772327356062e-10 0.0000000000000000e+00  -2.9241269866440480e-09 6.6582137321389360e-11 0.0000000000000000e+00  -2.9609071375186554e-09 -2.0351280121448627e-11 0.0000000000000000e+00  -2.9215036580284060e-09 -1.0669856308254426e-10 0.0000000000000000e+00  -2.8070456366348094e-09 -1.9022314974180696e-10 0.0000000000000000e+00  -2.6206569528241594e-09 -2.6875427523807281e-10 0.0000000000000000e+00  -2.3674027733462691e-09 -3.4021951117105229e-10 0.0000000000000000e+00  -2.0542630172984419e-09 -4.0265639964306559e-10 0.0000000000000000e+00  -1.6903206062383974e-09 -4.5414413876377127e-10 0.0000000000000000e+00  -1.2879558446594851e-09 -4.9231915019851968e-10 0.0000000000000000e+00  -8.6830710845163031e-10 -5.1146530081683511e-10 0.0000000000000000e+00  -4.8344569700784349e-10 -4.8937732624625605e-10 0.0000000000000000e+00  -2.4381278739909360e-10 -3.0747890029996967e-10 0.0000000000000000e+00  -2.7130195847169508e-10 9.8115029336248331e-10 0.0000000000000000e+00  -5.0101327569136430e-10 8.5646599523343883e-10 0.0000000000000000e+00  -8.6118871994240009e-10 8.6397809173067062e-10 0.0000000000000000e+00  -1.2456113643166648e-09 8.2845849041953199e-10 0.0000000000000000e+00  -1.6140341182596575e-09 7.5997079507029488e-10 0.0000000000000000e+00  -1.9487946781304337e-09 6.6619685141315873e-10 0.0000000000000000e+00  -2.2378388061226377e-09 5.5246645571494232e-10 0.0000000000000000e+00  -2.4720688142347210e-09 4.2310930343706297e-10 0.0000000000000000e+00  -2.6445240226388302e-09 2.8218459372049945e-10 0.0000000000000000e+00  -2.7502313829442947e-09 1.3373380268692136e-10 0.0000000000000000e+00  -2.7862006711361558e-09 -1.8166448408769583e-11 0.0000000000000000e+00  -2.7514346158343488e-09 -1.6943072737230380e-10 0.0000000000000000e+00  -2.6469212099303167e-09 -3.1602025120033444e-10 0.0000000000000000e+00  -2.4755994203632666e-09 -4.5400198240585948e-10 0.0000000000000000e+00  -2.2423056922554787e-09 -5.7958849885300189e-10 0.0000000000000000e+00  -1.9537402269187257e-09 -6.8911769830954111e-10 0.0000000000000000e+00  -1.6185939497105800e-09 -7.7886788530192362e-10 0.0000000000000000e+00  -1.2483499776850263e-09 -8.4442601651923019e-10 0.0000000000000000e+00  -8.6067112933023957e-10 -8.7888807403687914e-10 0.0000000000000000e+00  -4.9610481399624292e-10 -8.6913436346190075e-10 0.0000000000000000e+00  -2.5713033584815048e-10 -6.6533124201814384e-10 0.0000000000000000e+00  -2.8200518501286219e-10 1.4113163167396219e-09 0.0000000000000000e+00  -4.9592174583411755e-10 1.2649216577790070e-09 0.0000000000000000e+00  -8.4660632668792615e-10 1.2490555572381518e-09 0.0000000000000000e+00  -1.2157734302875938e-09 1.1932409417128699e-09 0.0000000000000000e+00  -1.5657623445681983e-09 1.0962416721752901e-09 0.0000000000000000e+00  -1.8825015753940425e-09 9.6396518141977504e-10 0.0000000000000000e+00  -2.1559264430059593e-09 8.0262335191883878e-10 0.0000000000000000e+00  -2.3777054448554737e-09 6.1813068558102393e-10 0.0000000000000000e+00  -2.5412016711897393e-09 4.1632699167123817e-10 0.0000000000000000e+00  -2.6415795716195508e-09 2.0311487144084238e-10 0.0000000000000000e+00  -2.6758847137173540e-09 -1.5524509923723899e-11 0.0000000000000000e+00  -2.6430853666885409e-09 -2.3358769633543071e-10 0.0000000000000000e+00  -2.5440727639699824e-09 -4.4513776079881377e-10 0.0000000000000000e+00  -2.3816194612209442e-09 -6.4439903932166943e-10 0.0000000000000000e+00  -2.1602982338669236e-09 -8.2583436530866259e-10 0.0000000000000000e+00  -1.8863768937926651e-09 -9.8417580691468038e-10 0.0000000000000000e+00  -1.5677650108570182e-09 -1.1143739254080806e-09 0.0000000000000000e+00  -1.2143956499116754e-09 -1.2114703467416155e-09 0.0000000000000000e+00  -8.4101332014571787e-10 -1.2704435272454156e-09 0.0000000000000000e+00  -4.8531026715562750e-10 -1.2846965959245118e-09 0.0000000000000000e+00  -2.5848773933452768e-10 -1.0996250677445490e-09 0.0000000000000000e+00  -3.0062173339592279e-10 1.8283804699682864e-09 0.0000000000000000e+00  -4.9343182101766424e-10 1.6712444997501947e-09 0.0000000000000000e+00  -8.3691725192396182e-10 1.6334627556011316e-09 0.0000000000000000e+00  -1.1998500310498972e-09 1.5533472389836863e-09 0.0000000000000000e+00  -1.5421206911104550e-09 1.4259820977449583e-09 0.0000000000000000e+00  -1.8503010400547263e-09 1.2552378282974854e-09 0.0000000000000000e+00  -2.1155067905336835e-09 1.0473117913312524e-09 0.0000000000000000e+00  -2.3302607872662162e-09 8.0914486325512828e-10 0.0000000000000000e+00  -2.4883963573282403e-09 5.4807893250108204e-10 0.0000000000000000e+00  -2.5853112969660289e-09 2.7174471008097853e-10 0.0000000000000000e+00  -2.6181482673166592e-09 -1.2039622971911455e-11 0.0000000000000000e+00  -2.5858833614339063e-09 -2.9539520925404924e-10 0.0000000000000000e+00  -2.4893425317801811e-09 -5.7052870164540471e-10 0.0000000000000000e+00  -2.3311547211722970e-09 -8.2988546780302814e-10 0.0000000000000000e+00  -2.1156431379657477e-09 -1.0662993807876278e-09 0.0000000000000000e+00  -1.8486629261364165e-09 -1.2731371875770251e-09 0.0000000000000000e+00  -1.5374670176024830e-09 -1.4444648525579937e-09 0.0000000000000000e+00  -1.1910972833341620e-09 -1.5753359938083817e-09 0.0000000000000000e+00  -8.2381157201046438e-10 -1.6621275853456447e-09 0.0000000000000000e+00  -4.7562469573501531e-10 -1.7001281386899455e-09 0.0000000000000000e+00  -2.6802083359398147e-10 -1.5360480201594955e-09 0.0000000000000000e+00  -3.2571785935027126e-10 2.2376243741993348e-09 0.0000000000000000e+00  -4.9654435933156156e-10 2.0731740707032292e-09 0.0000000000000000e+00  -8.3511041071898548e-10 2.0167407101334129e-09 0.0000000000000000e+00  -1.1967643512863821e-09 1.9115249099195122e-09 0.0000000000000000e+00  -1.5378509126457812e-09 1.7525097368820108e-09 0.0000000000000000e+00  -1.8441388882498217e-09 1.5427330794508821e-09 0.0000000000000000e+00  -2.1069553334584144e-09 1.2883794614375728e-09 0.0000000000000000e+00  -2.3192491269184630e-09 9.9716624777662477e-10 0.0000000000000000e+00  -2.4751965982108249e-09 6.7772585825974802e-10 0.0000000000000000e+00  -2.5704107064994094e-09 3.3927700997735599e-10 0.0000000000000000e+00  -2.6021459762151247e-09 -8.6163106703078944e-12 0.0000000000000000e+00  -2.5694138853486462e-09 -3.5626690956459595e-10 0.0000000000000000e+00  -2.4730133547692564e-09 -6.9408726424029731e-10 0.0000000000000000e+00  -2.3154856574650181e-09 -1.0128179691655744e-09 0.0000000000000000e+00  -2.1009983764086741e-09 -1.3037658326048132e-09 0.0000000000000000e+00  -1.8351776954979516e-09 -1.5590656459364400e-09 0.0000000000000000e+00  -1.5250153406677514e-09 -1.7720028623392831e-09 0.0000000000000000e+00  -1.1794912313837130e-09 -1.9374482848971747e-09 0.0000000000000000e+00  -8.1377173550553438e-10 -2.0520774624507671e-09 0.0000000000000000e+00  -4.7142528040230018e-10 -2.1109747791968072e-09 0.0000000000000000e+00  -2.8439054923446870e-10 -1.9631193389294419e-09 0.0000000000000000e+00  -3.5678729482730543e-10 2.6438969402344684e-09 0.0000000000000000e+00  -5.0522151702097405e-10 2.4739486703113121e-09 0.0000000000000000e+00  -8.4119929235869713e-10 2.4013731403558112e-09 0.0000000000000000e+00  -1.2049947235133629e-09 2.2716579104969689e-09 0.0000000000000000e+00  -1.5490772823960863e-09 2.0803998528703200e-09 0.0000000000000000e+00  -1.8579126028231749e-09 1.8308182180458969e-09 0.0000000000000000e+00  -2.1224672277806259e-09 1.5294630239061944e-09 0.0000000000000000e+00  -2.3357017265615191e-09 1.1848723806836556e-09 0.0000000000000000e+00  -2.4919135942478793e-09 8.0690887201659498e-10 0.0000000000000000e+00  -2.5868349661932076e-09 4.0630641151753645e-10 0.0000000000000000e+00  -2.6178046707163820e-09 -5.6868274890932974e-12 0.0000000000000000e+00  -2.5838800685107445e-09 -4.1762533394149692e-10 0.0000000000000000e+00  -2.4858724827143606e-09 -8.1817046634609757e-10 0.0000000000000000e+00  -2.3263099599926007e-09 -1.1963972664984259e-09 0.0000000000000000e+00  -2.1093348912017986e-09 -1.5421165530374153e-09 0.0000000000000000e+00  -1.8405696046546833e-09 -1.8462282959895877e-09 0.0000000000000000e+00  -1.5271147155819846e-09 -2.1011257819393121e-09 0.0000000000000000e+00  -1.1784147604973675e-09 -2.3011364215951106e-09 0.0000000000000000e+00  -8.1107394349243321e-10 -2.4425465413741595e-09 0.0000000000000000e+00  -4.7252023445232915e-10 -2.5196265239889264e-09 0.0000000000000000e+00  -3.0645328174590809e-10 -2.3830222539746035e-09 0.0000000000000000e+00  -3.9364199003994990e-10 3.0508155189092332e-09 0.0000000000000000e+00  -5.1850635160646103e-10 2.8768647586144907e-09 0.0000000000000000e+00  -8.5359767321735352e-10 2.7901316888891531e-09 0.0000000000000000e+00  -1.2219019459901197e-09 2.6367887668466056e-09 0.0000000000000000e+00  -1.5716449342319491e-09 2.4130926258366961e-09 0.0000000000000000e+00  -1.8858161664579548e-09 2.1229300126262017e-09 0.0000000000000000e+00  -2.1547570134165271e-09 1.7735968196479220e-09 0.0000000000000000e+00  -2.3711785228003531e-09 1.3746367172875844e-09 0.0000000000000000e+00  -2.5293139707578301e-09 9.3720425761732960e-10 0.0000000000000000e+00  -2.6249118744472584e-09 4.7355475403606934e-10 0.0000000000000000e+00  -2.6553533573898047e-09 -3.3931488375609368e-12 0.0000000000000000e+00  -2.6197406918121499e-09 -4.8045250164391755e-10 0.0000000000000000e+00  -2.5189291166457350e-09 -9.4454410071537949e-10 0.0000000000000000e+00  -2.3555006562259690e-09 -1.3830725835408316e-09 0.0000000000000000e+00  -2.1336880149537542e-09 -1.7843184222807170e-09 0.0000000000000000e+00  -1.8592889778775897e-09 -2.1378578154495753e-09 0.0000000000000000e+00  -1.5397573098374442e-09 -2.4350111255129080e-09 0.0000000000000000e+00  -1.1852671571737610e-09 -2.6692679272896806e-09 0.0000000000000000e+00  -8.1406284469532988e-10 -2.8362023798434412e-09 0.0000000000000000e+00  -4.7774378377698994e-10 -2.9291752712890711e-09 0.0000000000000000e+00  -3.3373586460487289e-10 -2.7997689003908410e-09 0.0000000000000000e+00  -4.3626480965464674e-10 3.4604212051248069e-09 0.0000000000000000e+00  -5.3506717966128613e-10 3.2842489648141014e-09 0.0000000000000000e+00  -8.6988724426903953e-10 3.1850386533327983e-09 0.0000000000000000e+00  -1.2439354897985159e-09 3.0089108516476126e-09 0.0000000000000000e+00  -1.6007082609856362e-09 2.7527072251380565e-09 0.0000000000000000e+00  -1.9216195991698028e-09 2.4212029045937632e-09 0.0000000000000000e+00  -2.1962820931515778e-09 2.0227236170554478e-09 0.0000000000000000e+00  -2.4170340807864745e-09 1.5680314172130583e-09 0.0000000000000000e+00  -2.5779416217875796e-09 1.0696991176247043e-09 0.0000000000000000e+00  -2.6747052570835900e-09 5.4156654841346144e-10 0.0000000000000000e+00  -2.7047193312934589e-09 -1.7503573837293934e-12 0.0000000000000000e+00  -2.6671278049645596e-09 -5.4531054087516554e-10 0.0000000000000000e+00  -2.5628471470622792e-09 -1.0742771828940262e-09 0.0000000000000000e+00  -2.3945530837780803e-09 -1.5743461650226704e-09 0.0000000000000000e+00  -2.1666374988625831e-09 -2.0321916209547269e-09 0.0000000000000000e+00  -1.8851759482802628e-09 -2.4359378562520345e-09 0.0000000000000000e+00  -1.5581015795413861e-09 -2.7756477207091521e-09 0.0000000000000000e+00  -1.1964408495569688e-09 -3.0437608586745518e-09 0.0000000000000000e+00  -8.2020604333475604e-10 -3.2349949426690346e-09 0.0000000000000000e+00  -4.8560513877910903e-10 -3.3418430558512000e-09 0.0000000000000000e+00  -3.6604963822823914e-10 -3.2164279868854700e-09 0.0000000000000000e+00  -4.8474184425414848e-10 3.8729842777108352e-09 0.0000000000000000e+00  -5.5332355425849899e-10 3.6970517138085093e-09 0.0000000000000000e+00  -8.8706342037004211e-10 3.5869310424514650e-09 0.0000000000000000e+00  -1.2667333704823013e-09 3.3888059274070504e-09 0.0000000000000000e+00  -1.6305379164123631e-09 3.1000493196851144e-09 0.0000000000000000e+00  -1.9582204146042505e-09 2.7264615486316019e-09 0.0000000000000000e+00  -2.2386430645338067e-09 2.2776174308688703e-09 0.0000000000000000e+00  -2.4637519783003784e-09 1.7657032120501267e-09 0.0000000000000000e+00  -2.6274309263946188e-09 1.2048593974389859e-09 0.0000000000000000e+00  -2.7253274004242574e-09 6.1060012047895676e-10 0.0000000000000000e+00  -2.7548508068020990e-09 -7.1568944675631275e-13 0.0000000000000000e+00  -2.7151890834204614e-09 -6.1236858645121542e-10 0.0000000000000000e+00  -2.6073194858173150e-09 -1.2077370565815545e-09 0.0000000000000000e+00  -2.4340111330130176e-09 -1.7707559520740139e-09 0.0000000000000000e+00  -2.1998221214125622e-09 -2.2863986040554948e-09 0.0000000000000000e+00  -1.9111264881164015e-09 -2.7411943245102059e-09 0.0000000000000000e+00  -1.5763715320763565e-09 -3.1237691574628719e-09 0.0000000000000000e+00  -1.2074866346853861e-09 -3.4253397901118110e-09 0.0000000000000000e+00  -8.2637920486270236e-10 -3.6396780136842058e-09 0.0000000000000000e+00  -4.9439086808529664e-10 -3.7584643490570517e-09 0.0000000000000000e+00  -4.0333909455448861e-10 -3.6344834070081611e-09 0.0000000000000000e+00  -5.3922724234703464e-10 4.2867843437614945e-09 0.0000000000000000e+00  -5.7144012871135404e-10 4.1145503966793932e-09 0.0000000000000000e+00  -9.0154657295507014e-10 3.9951392420781708e-09 0.0000000000000000e+00  -1.2850643956431378e-09 3.7758092729332183e-09 0.0000000000000000e+00  -1.6543050518175568e-09 3.4544872249896078e-09 0.0000000000000000e+00  -1.9872459871336168e-09 3.0381409722151065e-09 0.0000000000000000e+00  -2.2720339963422306e-09 2.5378017090661375e-09 0.0000000000000000e+00  -2.5002905449371315e-09 1.9672826863707215e-09 0.0000000000000000e+00  -2.6657906804232612e-09 1.3424451525655500e-09 0.0000000000000000e+00  -2.7641943911422314e-09 6.8056720265833028e-10 0.0000000000000000e+00  -2.7929706383058581e-09 -2.1261408015902170e-13 0.0000000000000000e+00  -2.7513646184415849e-09 -6.8138813303526078e-10 0.0000000000000000e+00  -2.6403932865178523e-09 -1.3445424183950494e-09 0.0000000000000000e+00  -2.4628694765888328e-09 -1.9718070581196110e-09 0.0000000000000000e+00  -2.2234525155164295e-09 -2.5463605544820215e-09 0.0000000000000000e+00  -1.9287515243679766e-09 -3.0529871801009012e-09 0.0000000000000000e+00  -1.5876838342300961e-09 -3.4786885880413056e-09 0.0000000000000000e+00  -1.2130837160456568e-09 -3.8132782351139462e-09 0.0000000000000000e+00  -8.2888779796892381e-10 -4.0494771330466863e-09 0.0000000000000000e+00  -5.0214389729714443e-10 -4.1781787846893379e-09 0.0000000000000000e+00  -4.4562380597511747e-10 -4.0535875016261141e-09 0.0000000000000000e+00  -5.9992423209666024e-10 4.6978184837929115e-09 0.0000000000000000e+00  -5.8726928370061868e-10 4.5340378843652714e-09 0.0000000000000000e+00  -9.0908369019060570e-10 4.4071489871087001e-09 0.0000000000000000e+00  -1.2926562022084608e-09 4.1674945346303049e-09 0.0000000000000000e+00  -1.6637893410275457e-09 3.8136883043695338e-09 0.0000000000000000e+00  -1.9986146331158543e-09 3.3540680588710008e-09 0.0000000000000000e+00  -2.2846602649562125e-09 2.8013613429255448e-09 0.0000000000000000e+00  -2.5133828237477122e-09 2.1712252663994958e-09 0.0000000000000000e+00  -2.6786211042796294e-09 1.4813908626404847e-09 0.0000000000000000e+00  -2.7761971365636829e-09 7.5096620015756712e-10 0.0000000000000000e+00  -2.8037377415154138e-09 -1.3511072348338422e-13 0.0000000000000000e+00  -2.7605740360783432e-09 -7.5166316428567257e-10 0.0000000000000000e+00  -2.6477168031405838e-09 -1.4834453572352897e-09 0.0000000000000000e+00  -2.4679122816805161e-09 -2.1758061736879718e-09 0.0000000000000000e+00  -2.2257697537435504e-09 -2.8100532392414379e-09 0.0000000000000000e+00  -1.9279739361779641e-09 -3.3690699122978664e-09 0.0000000000000000e+00  -1.5837827139358041e-09 -3.8380174528812214e-09 0.0000000000000000e+00  -1.2068843237593343e-09 -4.2050779510092012e-09 0.0000000000000000e+00  -8.2337361571546221e-10 -4.4617544371054694e-09 0.0000000000000000e+00  -5.0659992531572529e-10 -4.5981271924161890e-09 0.0000000000000000e+00  -4.9297159229284731e-10 -4.4713256426235734e-09 0.0000000000000000e+00  -6.6707668781458673e-10 5.0994184626951190e-09 0.0000000000000000e+00  -5.9826854469401687e-10 4.9504468218320292e-09 0.0000000000000000e+00  -9.0458861850536552e-10 4.8181985438283626e-09 0.0000000000000000e+00  -1.2819400303785523e-09 4.5592636305152794e-09 0.0000000000000000e+00  -1.6490006671278191e-09 4.1732251664208894e-09 0.0000000000000000e+00  -1.9800134281780038e-09 3.6700996715185687e-09 0.0000000000000000e+00  -2.2620702037615528e-09 3.0646240112348421e-09 0.0000000000000000e+00  -2.4867391144783773e-09 2.3745499263570711e-09 0.0000000000000000e+00  -2.6482185560548568e-09 1.6196189160767111e-09 0.0000000000000000e+00  -2.7427477515847635e-09 8.2078669276042181e-10 0.0000000000000000e+00  -2.7682782626309220e-09 -3.4212302100972504e-13 0.0000000000000000e+00  -2.7242758574797517e-09 -8.2191279146275107e-10 0.0000000000000000e+00  -2.6116678513034440e-09 -1.6221309273170276e-09 0.0000000000000000e+00  -2.4329461327999198e-09 -2.3795839618841400e-09 0.0000000000000000e+00  -2.1924087232596706e-09 -3.0736711106651752e-09 0.0000000000000000e+00  -1.8965344219670865e-09 -3.6852132594945575e-09 0.0000000000000000e+00  -1.5546825737703818e-09 -4.1972646931404553e-09 0.0000000000000000e+00  -1.1812706067046612e-09 -4.5960604370640248e-09 0.0000000000000000e+00  -8.0465779074210578e-10 -4.8716128145412135e-09 0.0000000000000000e+00  -5.0510068481476572e-10 -5.0130875068699415e-09 0.0000000000000000e+00  -5.4548371270685865e-10 -4.8829121754156702e-09 0.0000000000000000e+00  -7.4097104169336078e-10 5.4817619101549747e-09 0.0000000000000000e+00  -6.0140140276779228e-10 5.3558820189400220e-09 0.0000000000000000e+00  -8.8193794644020510e-10 5.2207798411217201e-09 0.0000000000000000e+00  -1.2437242672917924e-09 4.9438205847964553e-09 0.0000000000000000e+00  -1.5977078086810076e-09 4.5260419268469090e-09 0.0000000000000000e+00  -1.916