<?xml version="1.0"?>
<VTKFile type="UnstructuredGrid"  version="0.1"  >
<UnstructuredGrid>
<Piece  NumberOfPoints="651" NumberOfCells="1200">
<Points>
<DataArray  type="Float64"  NumberOfComponents="3"  format="ascii">0 0 0  50000 0 0  100000 0 0  150000 0 0  200000 0 0  250000 0 0  300000 0 0  350000 0 0  400000 0 0  450000 0 0  500000 0 0  550000 0 0  600000 0 0  650000 0 0  700000 0 0  750000 0 0  800000 0 0  850000 0 0  900000 0 0  950000 0 0  1000000 0 0  0 50000 0  50000 50000 0  100000 50000 0  150000 50000 0  200000 50000 0  250000 50000 0  300000 50000 0  350000 50000 0  400000 50000 0  450000 50000 0  500000 50000 0  550000 50000 0  600000 50000 0  650000 50000 0  700000 50000 0  750000 50000 0  800000 50000 0  850000 50000 0  900000 50000 0  950000 50000 0  1000000 50000 0  0 100000 0  50000 100000 0  100000 100000 0  150000 100000 0  200000 100000 0  250000 100000 0  300000 100000 0  350000 100000 0  400000 100000 0  450000 100000 0  500000 100000 0  550000 100000 0  600000 100000 0  650000 100000 0  700000 100000 0  750000 100000 0  800000 100000 0  850000 100000 0  900000 100000 0  950000 100000 0  1000000 100000 0  0 150000 0  50000 150000 0  100000 150000 0  150000 150000 0  200000 150000 0  250000 150000 0  300000 150000 0  350000 150000 0  400000 150000 0  450000 150000 0  500000 150000 0  550000 150000 0  600000 150000 0  650000 150000 0  700000 150000 0  750000 150000 0  800000 150000 0  850000 150000 0  900000 150000 0  950000 150000 0  1000000 150000 0  0 200000 0  50000 200000 0  100000 200000 0  150000 200000 0  200000 200000 0  250000 200000 0  300000 200000 0  350000 200000 0  400000 200000 0  450000 200000 0  500000 200000 0  550000 200000 0  600000 200000 0  650000 200000 0  700000 200000 0  750000 200000 0  800000 200000 0  850000 200000 0  900000 200000 0  950000 200000 0  1000000 200000 0  0 250000 0  50000 250000 0  100000 250000 0  150000 250000 0  200000 250000 0  250000 250000 0  300000 250000 0  350000 250000 0  400000 250000 0  450000 250000 0  500000 250000 0  550000 250000 0  600000 250000 0  650000 250000 0  700000 250000 0  750000 250000 0  800000 250000 0  850000 250000 0  900000 250000 0  950000 250000 0  1000000 250000 0  0 300000 0  50000 300000 0  100000 300000 0  150000 300000 0  200000 300000 0  250000 300000 0  300000 300000 0  350000 300000 0  400000 300000 0  450000 300000 0  500000 300000 0  550000 300000 0  600000 300000 0  650000 300000 0  700000 300000 0  750000 300000 0  800000 300000 0  850000 300000 0  900000 300000 0  950000 300000 0  1000000 300000 0  0 350000 0  50000 350000 0  100000 350000 0  150000 350000 0  200000 350000 0  250000 350000 0  300000 350000 0  350000 350000 0  400000 350000 0  450000 350000 0  500000 350000 0  550000 350000 0  600000 350000 0  650000 350000 0  700000 350000 0  750000 350000 0  800000 350000 0  850000 350000 0  900000 350000 0  950000 350000 0  1000000 350000 0  0 400000 0  50000 400000 0  100000 400000 0  150000 400000 0  200000 400000 0  250000 400000 0  300000 400000 0  350000 400000 0  400000 400000 0  450000 400000 0  500000 400000 0  550000 400000 0  600000 400000 0  650000 400000 0  700000 400000 0  750000 400000 0  800000 400000 0  850000 400000 0  900000 400000 0  950000 400000 0  1000000 400000 0  0 450000 0  50000 450000 0  100000 450000 0  150000 450000 0  200000 450000 0  250000 450000 0  300000 450000 0  350000 450000 0  400000 450000 0  450000 450000 0  500000 450000 0  550000 450000 0  600000 450000 0  650000 450000 0  700000 450000 0  750000 450000 0  800000 450000 0  850000 450000 0  900000 450000 0  950000 450000 0  1000000 450000 0  0 500000 0  50000 500000 0  100000 500000 0  150000 500000 0  200000 500000 0  250000 500000 0  300000 500000 0  350000 500000 0  400000 500000 0  450000 500000 0  500000 500000 0  550000 500000 0  600000 500000 0  650000 500000 0  700000 500000 0  750000 500000 0  800000 500000 0  850000 500000 0  900000 500000 0  950000 500000 0  1000000 500000 0  0 550000 0  50000 550000 0  100000 550000 0  150000 550000 0  200000 550000 0  250000 550000 0  300000 550000 0  350000 550000 0  400000 550000 0  450000 550000 0  500000 550000 0  550000 550000 0  600000 550000 0  650000 550000 0  700000 550000 0  750000 550000 0  800000 550000 0  850000 550000 0  900000 550000 0  950000 550000 0  1000000 550000 0  0 600000 0  50000 600000 0  100000 600000 0  150000 600000 0  200000 600000 0  250000 600000 0  300000 600000 0  350000 600000 0  400000 600000 0  450000 600000 0  500000 600000 0  550000 600000 0  600000 600000 0  650000 600000 0  700000 600000 0  750000 600000 0  800000 600000 0  850000 600000 0  900000 600000 0  950000 600000 0  1000000 600000 0  0 650000 0  50000 650000 0  100000 650000 0  150000 650000 0  200000 650000 0  250000 650000 0  300000 650000 0  350000 650000 0  400000 650000 0  450000 650000 0  500000 650000 0  550000 650000 0  600000 650000 0  650000 650000 0  700000 650000 0  750000 650000 0  800000 650000 0  850000 650000 0  900000 650000 0  950000 650000 0  1000000 650000 0  0 700000 0  50000 700000 0  100000 700000 0  150000 700000 0  200000 700000 0  250000 700000 0  300000 700000 0  350000 700000 0  400000 700000 0  450000 700000 0  500000 700000 0  550000 700000 0  600000 700000 0  650000 700000 0  700000 700000 0  750000 700000 0  800000 700000 0  850000 700000 0  900000 700000 0  950000 700000 0  1000000 700000 0  0 750000 0  50000 750000 0  100000 750000 0  150000 750000 0  200000 750000 0  250000 750000 0  300000 750000 0  350000 750000 0  400000 750000 0  450000 750000 0  500000 750000 0  550000 750000 0  600000 750000 0  650000 750000 0  700000 750000 0  750000 750000 0  800000 750000 0  850000 750000 0  900000 750000 0  950000 750000 0  1000000 750000 0  0 800000 0  50000 800000 0  100000 800000 0  150000 800000 0  200000 800000 0  250000 800000 0  300000 800000 0  350000 800000 0  400000 800000 0  450000 800000 0  500000 800000 0  550000 800000 0  600000 800000 0  650000 800000 0  700000 800000 0  750000 800000 0  800000 800000 0  850000 800000 0  900000 800000 0  950000 800000 0  1000000 800000 0  0 850000 0  50000 850000 0  100000 850000 0  150000 850000 0  200000 850000 0  250000 850000 0  300000 850000 0  350000 850000 0  400000 850000 0  450000 850000 0  500000 850000 0  550000 850000 0  600000 850000 0  650000 850000 0  700000 850000 0  750000 850000 0  800000 850000 0  850000 850000 0  900000 850000 0  950000 850000 0  1000000 850000 0  0 900000 0  50000 900000 0  100000 900000 0  150000 900000 0  200000 900000 0  250000 900000 0  300000 900000 0  350000 900000 0  400000 900000 0  450000 900000 0  500000 900000 0  550000 900000 0  600000 900000 0  650000 900000 0  700000 900000 0  750000 900000 0  800000 900000 0  850000 900000 0  900000 900000 0  950000 900000 0  1000000 900000 0  0 950000 0  50000 950000 0  100000 950000 0  150000 950000 0  200000 950000 0  250000 950000 0  300000 950000 0  350000 950000 0  400000 950000 0  450000 950000 0  500000 950000 0  550000 950000 0  600000 950000 0  650000 950000 0  700000 950000 0  750000 950000 0  800000 950000 0  850000 950000 0  900000 950000 0  950000 950000 0  1000000 950000 0  0 1000000 0  50000 1000000 0  100000 1000000 0  150000 1000000 0  200000 1000000 0  250000 1000000 0  300000 1000000 0  350000 1000000 0  400000 1000000 0  450000 1000000 0  500000 1000000 0  550000 1000000 0  600000 1000000 0  650000 1000000 0  700000 1000000 0  750000 1000000 0  800000 1000000 0  850000 1000000 0  900000 1000000 0  950000 1000000 0  1000000 1000000 0  0 1050000 0  50000 1050000 0  100000 1050000 0  150000 1050000 0  200000 1050000 0  250000 1050000 0  300000 1050000 0  350000 1050000 0  400000 1050000 0  450000 1050000 0  500000 1050000 0  550000 1050000 0  600000 1050000 0  650000 1050000 0  700000 1050000 0  750000 1050000 0  800000 1050000 0  850000 1050000 0  900000 1050000 0  950000 1050000 0  1000000 1050000 0  0 1100000 0  50000 1100000 0  100000 1100000 0  150000 1100000 0  200000 1100000 0  250000 1100000 0  300000 1100000 0  350000 1100000 0  400000 1100000 0  450000 1100000 0  500000 1100000 0  550000 1100000 0  600000 1100000 0  650000 1100000 0  700000 1100000 0  750000 1100000 0  800000 1100000 0  850000 1100000 0  900000 1100000 0  950000 1100000 0  1000000 1100000 0  0 1150000 0  50000 1150000 0  100000 1150000 0  150000 1150000 0  200000 1150000 0  250000 1150000 0  300000 1150000 0  350000 1150000 0  400000 1150000 0  450000 1150000 0  500000 1150000 0  550000 1150000 0  600000 1150000 0  650000 1150000 0  700000 1150000 0  750000 1150000 0  800000 1150000 0  850000 1150000 0  900000 1150000 0  950000 1150000 0  1000000 1150000 0  0 1200000 0  50000 1200000 0  100000 1200000 0  150000 1200000 0  200000 1200000 0  250000 1200000 0  300000 1200000 0  350000 1200000 0  400000 1200000 0  450000 1200000 0  500000 1200000 0  550000 1200000 0  600000 1200000 0  650000 1200000 0  700000 1200000 0  750000 1200000 0  800000 1200000 0  850000 1200000 0  900000 1200000 0  950000 1200000 0  1000000 1200000 0  0 1250000 0  50000 1250000 0  100000 1250000 0  150000 1250000 0  200000 1250000 0  250000 1250000 0  300000 1250000 0  350000 1250000 0  400000 1250000 0  450000 1250000 0  500000 1250000 0  550000 1250000 0  600000 1250000 0  650000 1250000 0  700000 1250000 0  750000 1250000 0  800000 1250000 0  850000 1250000 0  900000 1250000 0  950000 1250000 0  1000000 1250000 0  0 1300000 0  50000 1300000 0  100000 1300000 0  150000 1300000 0  200000 1300000 0  250000 1300000 0  300000 1300000 0  350000 1300000 0  400000 1300000 0  450000 1300000 0  500000 1300000 0  550000 1300000 0  600000 1300000 0  650000 1300000 0  700000 1300000 0  750000 1300000 0  800000 1300000 0  850000 1300000 0  900000 1300000 0  950000 1300000 0  1000000 1300000 0  0 1350000 0  50000 1350000 0  100000 1350000 0  150000 1350000 0  200000 1350000 0  250000 1350000 0  300000 1350000 0  350000 1350000 0  400000 1350000 0  450000 1350000 0  500000 1350000 0  550000 1350000 0  600000 1350000 0  650000 1350000 0  700000 135
[...]
<PointData  Vectors="f_5975"> 
<DataArray  type="Float64"  Name="f_5975"  NumberOfComponents="3" format="ascii">-3.1203583682695685e-10 3.3760287010450876e-10 0.0000000000000000e+00  -5.8504077261772761e-10 2.8457792055714554e-10 0.0000000000000000e+00  -1.0701560644431880e-09 2.6182546422497470e-10 0.0000000000000000e+00  -1.5387574165504294e-09 2.4146408239502861e-10 0.0000000000000000e+00  -1.9677101415955336e-09 2.1772631588852632e-10 0.0000000000000000e+00  -2.3444916526328685e-09 1.9006806022729017e-10 0.0000000000000000e+00  -2.6589337261582576e-09 1.5879689020274464e-10 0.0000000000000000e+00  -2.9028143076746867e-09 1.2451392498106884e-10 0.0000000000000000e+00  -3.0698472063690587e-09 8.7983924798348812e-11 0.0000000000000000e+00  -3.1557936815238017e-09 5.0067528909563597e-11 0.0000000000000000e+00  -3.1585540150785042e-09 1.1677768735524053e-11 0.0000000000000000e+00  -3.0782115275830712e-09 -2.6253105029623469e-11 0.0000000000000000e+00  -2.9170239389930243e-09 -6.2802771082153920e-11 0.0000000000000000e+00  -2.6793619471235286e-09 -9.7087193028495389e-11 0.0000000000000000e+00  -2.3716055327031162e-09 -1.2829238202349753e-10 0.0000000000000000e+00  -2.0020637558201801e-09 -1.5572354972611200e-10 0.0000000000000000e+00  -1.5812644548535781e-09 -1.7892328719220336e-10 0.0000000000000000e+00  -1.1242050861339551e-09 -1.9800215438774394e-10 0.0000000000000000e+00  -6.6104422573757609e-10 -2.1330965061860074e-10 0.0000000000000000e+00  -2.8261278658274343e-10 -2.0686006010836098e-10 0.0000000000000000e+00  -1.2325453645669181e-10 -1.2360762883140197e-10 0.0000000000000000e+00  -2.6413364152959740e-10 5.8930997817736823e-10 0.0000000000000000e+00  -4.9895813660779651e-10 5.0309203190606372e-10 0.0000000000000000e+00  -8.9197001373241420e-10 5.0601054632123837e-10 0.0000000000000000e+00  -1.3130820480276724e-09 4.8220029264828222e-10 0.0000000000000000e+00  -1.7135748300938919e-09 4.3971016431617804e-10 0.0000000000000000e+00  -2.0747584224106351e-09 3.8353964961220051e-10 0.0000000000000000e+00  -2.3843680167118640e-09 3.1653810195440082e-10 0.0000000000000000e+00  -2.6331247550843458e-09 2.4102431448979852e-10 0.0000000000000000e+00  -2.8140045772042753e-09 1.5924131172640284e-10 0.0000000000000000e+00  -2.9220680428822480e-09 7.3467438895467371e-11 0.0000000000000000e+00  -2.9544549519028758e-09 -1.3973682725796034e-11 0.0000000000000000e+00  -2.9104003433778053e-09 -1.0073957102691926e-10 0.0000000000000000e+00  -2.7912328944373607e-09 -1.8450756593220779e-10 0.0000000000000000e+00  -2.6003483642083283e-09 -2.6301337314196777e-10 0.0000000000000000e+00  -2.3431690302847064e-09 -3.3407770538877206e-10 0.0000000000000000e+00  -2.0271391989817405e-09 -3.9559885797908682e-10 0.0000000000000000e+00  -1.6619395241471514e-09 -4.4544373987023431e-10 0.0000000000000000e+00  -1.2606212196097618e-09 -4.8092766407676816e-10 0.0000000000000000e+00  -8.4459520683092438e-10 -4.9596958819022377e-10 0.0000000000000000e+00  -4.6572788146926774e-10 -4.6687687642109720e-10 0.0000000000000000e+00  -2.1424306937463171e-10 -2.7151650292012234e-10 0.0000000000000000e+00  -2.5941140924713605e-10 1.0360370919281540e-09 0.0000000000000000e+00  -5.1079566689881404e-10 8.7824680166366262e-10 0.0000000000000000e+00  -8.8959817099062481e-10 8.6825093782327921e-10 0.0000000000000000e+00  -1.2820560399288211e-09 8.2927567813843742e-10 0.0000000000000000e+00  -1.6533383063852907e-09 7.5934595393624019e-10 0.0000000000000000e+00  -1.9882096330414169e-09 6.6437221549601699e-10 0.0000000000000000e+00  -2.2756062037671387e-09 5.4939363100823798e-10 0.0000000000000000e+00  -2.5067544019297201e-09 4.1873865563317936e-10 0.0000000000000000e+00  -2.6748974250299331e-09 2.7654352794434675e-10 0.0000000000000000e+00  -2.7752722755921397e-09 1.2694742630738925e-10 0.0000000000000000e+00  -2.8051171894041372e-09 -2.5866254203860135e-11 0.0000000000000000e+00  -2.7636819537898263e-09 -1.7769451664689391e-10 0.0000000000000000e+00  -2.6522257030974344e-09 -3.2436442355014824e-10 0.0000000000000000e+00  -2.4739976431149270e-09 -4.6178191972533385e-10 0.0000000000000000e+00  -2.2342101340231590e-09 -5.8595293516003616e-10 0.0000000000000000e+00  -1.9400416956332639e-09 -6.9292982863302456e-10 0.0000000000000000e+00  -1.6007974470934159e-09 -7.7857486327312584e-10 0.0000000000000000e+00  -1.2287034859069738e-09 -8.3786328831445594e-10 0.0000000000000000e+00  -8.4212987453443155e-10 -8.6295504498217202e-10 0.0000000000000000e+00  -4.8146216612736615e-10 -8.4071488609009680e-10 0.0000000000000000e+00  -2.2983238544393054e-10 -6.1812598449503676e-10 0.0000000000000000e+00  -2.6956037557711612e-10 1.4760363228777508e-09 0.0000000000000000e+00  -5.0650435868340344e-10 1.3027239109355943e-09 0.0000000000000000e+00  -8.7819228357487233e-10 1.2643253631529775e-09 0.0000000000000000e+00  -1.2610017599163986e-09 1.1995168318458121e-09 0.0000000000000000e+00  -1.6190629758726633e-09 1.0973961948994982e-09 0.0000000000000000e+00  -1.9394775461769909e-09 9.6120705904984613e-10 0.0000000000000000e+00  -2.2132856521053192e-09 7.9643743025287958e-10 0.0000000000000000e+00  -2.4329007764473402e-09 6.0885513682009518e-10 0.0000000000000000e+00  -2.5922211390734292e-09 4.0432765726525058e-10 0.0000000000000000e+00  -2.6868524501126509e-09 1.8883809028908229e-10 0.0000000000000000e+00  -2.7142354101789390e-09 -3.1533019100223256e-11 0.0000000000000000e+00  -2.6737042726317369e-09 -2.5066485930229862e-10 0.0000000000000000e+00  -2.5665010067085445e-09 -4.6247198161586707e-10 0.0000000000000000e+00  -2.3957559191375493e-09 -6.6097714170433638e-10 0.0000000000000000e+00  -2.1664402861127202e-09 -8.4035765685295827e-10 0.0000000000000000e+00  -1.8853036033404696e-09 -9.9493451038451804e-10 0.0000000000000000e+00  -1.5608597478469091e-09 -1.1190699359815736e-09 0.0000000000000000e+00  -1.2037670482169263e-09 -1.2069897131219890e-09 0.0000000000000000e+00  -8.2934142744158539e-10 -1.2526582607884229e-09 0.0000000000000000e+00  -4.7495453207212540e-10 -1.2501965671897479e-09 0.0000000000000000e+00  -2.3395212045519055e-10 -1.0398647772349457e-09 0.0000000000000000e+00  -2.8780436884480780e-10 1.9068430413698404e-09 0.0000000000000000e+00  -5.0601467231260986e-10 1.7271820096149742e-09 0.0000000000000000e+00  -8.7165958686383580e-10 1.6650084792054288e-09 0.0000000000000000e+00  -1.2506813401225870e-09 1.5709210241866125e-09 0.0000000000000000e+00  -1.6041728927343734e-09 1.4336357031386418e-09 0.0000000000000000e+00  -1.9187624352368813e-09 1.2550157761124458e-09 0.0000000000000000e+00  -2.1862549540404170e-09 1.0404516318064713e-09 0.0000000000000000e+00  -2.3999544422029860e-09 7.9661906110605942e-10 0.0000000000000000e+00  -2.5544024936035486e-09 5.3080642611198743e-10 0.0000000000000000e+00  -2.6456161665923946e-09 2.5066437018939899e-10 0.0000000000000000e+00  -2.6712769636914151e-09 -3.5940461674035000e-11 0.0000000000000000e+00  -2.6308299899284152e-09 -3.2105282675925653e-10 0.0000000000000000e+00  -2.5255155912538046e-09 -5.9675386976943137e-10 0.0000000000000000e+00  -2.3583473861014874e-09 -8.5528095630469511e-10 0.0000000000000000e+00  -2.1340397388818680e-09 -1.0891359642294440e-09 0.0000000000000000e+00  -1.8588893886154516e-09 -1.2911829904334500e-09 0.0000000000000000e+00  -1.5406800584680948e-09 -1.4547696108764761e-09 0.0000000000000000e+00  -1.1890613305467171e-09 -1.5739979523835457e-09 0.0000000000000000e+00  -8.1869124635223749e-10 -1.6441785093573545e-09 0.0000000000000000e+00  -4.6950290364098433e-10 -1.6616114927995229e-09 0.0000000000000000e+00  -2.4573533071393917e-10 -1.4658159528413366e-09 0.0000000000000000e+00  -3.1276182416101488e-10 2.3337745041068633e-09 0.0000000000000000e+00  -5.1167439504184395e-10 2.1483158961348425e-09 0.0000000000000000e+00  -8.7350738496896909e-10 2.0664766936802105e-09 0.0000000000000000e+00  -1.2523912358347308e-09 1.9431577739928682e-09 0.0000000000000000e+00  -1.6061993640581317e-09 1.7693383907730810e-09 0.0000000000000000e+00  -1.9204021009063819e-09 1.5471379404428094e-09 0.0000000000000000e+00  -2.1866973883335914e-09 1.2822763948222980e-09 0.0000000000000000e+00  -2.3987231553713642e-09 9.8226347603508083e-10 0.0000000000000000e+00  -2.5514188289752864e-09 6.5564058653775186e-10 0.0000000000000000e+00  -2.6411213656102532e-09 3.1157640195535432e-10 0.0000000000000000e+00  -2.6657248315837022e-09 -4.0397541639338274e-11 0.0000000000000000e+00  -2.6247820069889577e-09 -3.9059628776164941e-10 0.0000000000000000e+00  -2.5195404574805404e-09 -7.2936987998216083e-10 0.0000000000000000e+00  -2.3529191401668097e-09 -1.0472850366752905e-09 0.0000000000000000e+00  -2.1294280282905054e-09 -1.3353106697035801e-09 0.0000000000000000e+00  -1.8550451457820107e-09 -1.5850277310541005e-09 0.0000000000000000e+00  -1.5371640001573080e-09 -1.7889118011814798e-09 0.0000000000000000e+00  -1.1852097596656249e-09 -1.9407723684103588e-09 0.0000000000000000e+00  -8.1459436840262036e-10 -2.0361368145963561e-09 0.0000000000000000e+00  -4.6914671242123748e-10 -2.0713658802603517e-09 0.0000000000000000e+00  -2.6420991456605556e-10 -1.8854875546818372e-09 0.0000000000000000e+00  -3.4397345743314411e-10 2.7616353957878695e-09 0.0000000000000000e+00  -5.2312869334075201e-10 2.5699118036166735e-09 0.0000000000000000e+00  -8.8351124497848756e-10 2.4701980578515519e-09 0.0000000000000000e+00  -1.2650868094208713e-09 2.3184760779732391e-09 0.0000000000000000e+00  -1.6223263525967844e-09 2.1076085572315710e-09 0.0000000000000000e+00  -1.9394901588595605e-09 1.8408666885290072e-09 0.0000000000000000e+00  -2.2078468282749621e-09 1.5248373046022196e-09 0.0000000000000000e+00  -2.4210151899870656e-09 1.1680411767010804e-09 0.0000000000000000e+00  -2.5740919750279574e-09 7.8027397597982042e-10 0.0000000000000000e+00  -2.6636033807134738e-09 3.7215858905484767e-10 0.0000000000000000e+00  -2.6875954771644714e-09 -4.5190945088953572e-11 0.0000000000000000e+00  -2.6457079407797330e-09 -4.6044590202855931e-10 0.0000000000000000e+00  -2.5392016654184053e-09 -8.6231140140040770e-10 0.0000000000000000e+00  -2.3709369997379347e-09 -1.2397686506975692e-09 0.0000000000000000e+00  -2.1453055138234773e-09 -1.5823302830387893e-09 0.0000000000000000e+00  -1.8681427397381679e-09 -1.8803328836885148e-09 0.0000000000000000e+00  -1.5467744218115457e-09 -2.1252995625661862e-09 0.0000000000000000e+00  -1.1908943303448357e-09 -2.3103944625572127e-09 0.0000000000000000e+00  -8.1719702340604769e-10 -2.4306398868448903e-09 0.0000000000000000e+00  -4.7377649076700712e-10 -2.4817656833164483e-09 0.0000000000000000e+00  -2.8845925298635509e-10 -2.3012815678675175e-09 0.0000000000000000e+00  -3.8128154879488359e-10 3.1940135451768320e-09 0.0000000000000000e+00  -5.3927447349484677e-10 2.9955064691683960e-09 0.0000000000000000e+00  -8.9983590846962151e-10 2.8786790739208390e-09 0.0000000000000000e+00  -1.2860627338071529e-09 2.6990226011416669e-09 0.0000000000000000e+00  -1.6486280273861366e-09 2.4507856032258553e-09 0.0000000000000000e+00  -1.9706153227094725e-09 2.1386369848500587e-09 0.0000000000000000e+00  -2.2428105794187180e-09 1.7703865311558124e-09 0.0000000000000000e+00  -2.4586725334844425e-09 1.3557896463380812e-09 0.0000000000000000e+00  -2.6133171525246336e-09 9.0598445263246350e-10 0.0000000000000000e+00  -2.7033651146021880e-09 4.3305266324281387e-10 0.0000000000000000e+00  -2.7269616210489201e-09 -5.0347963396118584e-11 0.0000000000000000e+00  -2.6838108378754189e-09 -5.3130220098875607e-10 0.0000000000000000e+00  -2.5751888282367430e-09 -9.9692960823235795e-10 0.0000000000000000e+00  -2.4039272065540720e-09 -1.4346729661552395e-09 0.0000000000000000e+00  -2.1743706051542641e-09 -1.8326045491858964e-09 0.0000000000000000e+00  -1.8923430376347110e-09 -2.1797704810952681e-09 0.0000000000000000e+00  -1.5652987076172105e-09 -2.4665877275981639e-09 0.0000000000000000e+00  -1.2034241446719763e-09 -2.6852795377370324e-09 0.0000000000000000e+00  -8.2487361442924811e-10 -2.8299942348391734e-09 0.0000000000000000e+00  -4.8233131009946348e-10 -2.8956377706207303e-09 0.0000000000000000e+00  -3.1811371823893271e-10 -2.7172347576955574e-09 0.0000000000000000e+00  -4.2468424151641706e-10 3.6329572657632118e-09 0.0000000000000000e+00  -5.5868997774864286e-10 3.4274450930972190e-09 0.0000000000000000e+00  -9.1983363938914594e-10 3.2937284963902532e-09 0.0000000000000000e+00  -1.3115166129633175e-09 3.0861597051036021e-09 0.0000000000000000e+00  -1.6800803855636171e-09 2.8001001714872972e-09 0.0000000000000000e+00  -2.0074399557573084e-09 2.4416513161126252e-09 0.0000000000000000e+00  -2.2839464802426818e-09 2.0200428765460871e-09 0.0000000000000000e+00  -2.5028968728992160e-09 1.5464455081947294e-09 0.0000000000000000e+00  -2.6593976393614728e-09 1.0334459671021278e-09 0.0000000000000000e+00  -2.7501351846660826e-09 4.9461953073909195e-10 0.0000000000000000e+00  -2.7733337671238827e-09 -5.5846801672527081e-11 0.0000000000000000e+00  -2.7287495760425453e-09 -6.0349060165667561e-10 0.0000000000000000e+00  -2.6176683477866810e-09 -1.1338872208155942e-09 0.0000000000000000e+00  -2.4428989062820227e-09 -1.6329628570781787e-09 0.0000000000000000e+00  -2.2087649758440568e-09 -2.0873302461330425e-09 0.0000000000000000e+00  -1.9211315584301500e-09 -2.4846638716017013e-09 0.0000000000000000e+00  -1.5876533090257248e-09 -2.8141183485973900e-09 0.0000000000000000e+00  -1.2190762414193376e-09 -3.0667624663394002e-09 0.0000000000000000e+00  -8.3508817814060957e-10 -3.2356826547288478e-09 0.0000000000000000e+00  -4.9337465689104115e-10 -3.3149216055535282e-09 0.0000000000000000e+00  -3.5303466875008283e-10 -3.1364348160535023e-09 0.0000000000000000e+00  -4.7426789080076363e-10 4.0787653761553246e-09 0.0000000000000000e+00  -5.7971206031705681e-10 3.8665607896708821e-09 0.0000000000000000e+00  -9.4026631232586707e-10 3.7158510205334944e-09 0.0000000000000000e+00  -1.3367357862378332e-09 3.4800491224568807e-09 0.0000000000000000e+00  -1.7105454007717548e-09 3.1555197417950079e-09 0.0000000000000000e+00  -2.0424260316724234e-09 2.7498207787628613e-09 0.0000000000000000e+00  -2.3223885346595619e-09 2.2737251865559992e-09 0.0000000000000000e+00  -2.5436569985915970e-09 1.7399539387004330e-09 0.0000000000000000e+00  -2.7013932967106676e-09 1.1626330415667732e-09 0.0000000000000000e+00  -2.7923928974982756e-09 5.5686259217694047e-10 0.0000000000000000e+00  -2.8149824957281499e-09 -6.1658785752724690e-11 0.0000000000000000e+00  -2.7689729951640915e-09 -6.7696567596837306e-10 0.0000000000000000e+00  -2.6556431064495925e-09 -1.2731337252615610e-09 0.0000000000000000e+00  -2.4777485905399415e-09 -1.8345915613472302e-09 0.0000000000000000e+00  -2.2395574426182846e-09 -2.3464643319966492e-09 0.0000000000000000e+00  -1.9469437173612326e-09 -2.7949671577311735e-09 0.0000000000000000e+00  -1.6077344176849819e-09 -3.1678492240160448e-09 0.0000000000000000e+00  -1.2332127974418476e-09 -3.4548591234730287e-09 0.0000000000000000e+00  -8.4464761341227055e-10 -3.6479012507901024e-09 0.0000000000000000e+00  -5.0519863217069674e-10 -3.7401480531449712e-09 0.0000000000000000e+00  -3.9319900499628095e-10 -3.5604156272472316e-09 0.0000000000000000e+00  -5.3016817662539096e-10 4.5297366171888887e-09 0.0000000000000000e+00  -6.0040329480004885e-10 4.3118872185838537e-09 0.0000000000000000e+00  -9.5728915461792917e-10 4.1438822209912692e-09 0.0000000000000000e+00  -1.3560547085329329e-09 3.8792933752257144e-09 0.0000000000000000e+00  -1.7326234310910636e-09 3.5155097635834177e-09 0.0000000000000000e+00  -2.0665300648152158e-09 3.0616180213898879e-09 0.0000000000000000e+00  -2.3475834820931268e-09 2.5300495189494346e-09 0.0000000000000000e+00  -2.5691005019514906e-09 1.9351864531669531e-09 0.0000000000000000e+00  -2.7264493090050939e-09 1.2927589832226380e-09 0.0000000000000000e+00  -2.8166515329424396e-09 6.1939532921527281e-10 0.0000000000000000e+00  -2.8382076869378875e-09 -6.7744123747161705e-11 0.0000000000000000e+00  -2.7910024908345774e-09 -7.5126975114095488e-10 0.0000000000000000e+00  -2.6762748281508263e-09 -1.4138336878649680e-09 0.0000000000000000e+00  -2.4966508540458131e-09 -2.0384094956929078e-09 0.0000000000000000e+00  -2.2562368175446347e-09 -2.6086198804471746e-09 0.0000000000000000e+00  -1.9607969375261461e-09 -3.1091389647087829e-09 0.0000000000000000e+00  -1.6182152577150831e-09 -3.5261733373225942e-09 0.0000000000000000e+00  -1.2402261063490245e-09 -3.8479947313888439e-09 0.0000000000000000e+00  -8.4971194332580767e-10 -4.0652088265946457e-09 0.0000000000000000e+00  -5.1580620800941557e-10 -4.1701002129522306e-09 0.0000000000000000e+00  -4.3865499466754324e-10 -3.9889008260218803e-09 0.0000000000000000e+00  -5.9254494715053167e-10 4.9818385886533884e-09 0.0000000000000000e+00  -6.1847914016167794e-10 4.7603322260751625e-09 0.0000000000000000e+00  -9.6633111494689585e-10 4.5746222936801217e-09 0.0000000000000000e+00  -1.3626778518533224e-09 4.2805566185330963e-09 0.0000000000000000e+00  -1.7373847856277188e-09 3.8766961020583327e-09 0.0000000000000000e+00  -2.0688112335786810e-09 3.3738026301897060e-09 0.0000000000000000e+00  -2.3467650829601408e-09 2.7861123488976862e-09 0.0000000000000000e+00  -2.5649084045236054e-09 2.1297766350714552e-09 0.0000000000000000e+00  -2.7190606684422020e-09 1.4221663291521939e-09 0.0000000000000000e+00  -2.8066681858143803e-09 6.8139248654994567e-10 0.0000000000000000e+00  -2.8265300733574164e-09 -7.4035832711612981e-11 0.0000000000000000e+00  -2.7786405368581089e-09 -8.2545330932201851e-10 0.0000000000000000e+00  -2.6641432453957978e-09 -1.5542309534791574e-09 0.0000000000000000e+00  -2.4853999962301956e-09 -2.2419827469144833e-09 0.0000000000000000e+00  -2.2461643936627499e-09 -2.8708472051890068e-09 0.0000000000000000e+00  -1.9518745071295383e-09 -3.4238870577812737e-09 0.0000000000000000e+00  -1.6102647148497184e-09 -3.8856206359824384e-09 0.0000000000000000e+00  -1.2333691177927342e-09 -4.2426612181359480e-09 0.0000000000000000e+00  -8.4569334892602626e-10 -4.4841614957396311e-09 0.0000000000000000e+00  -5.2284620870274317e-10 -4.6014703998498869e-09 0.0000000000000000e+00  -4.8949952545077411e-10 -4.4195407547280023e-09 0.0000000000000000e+00  -6.6156632443178160e-10 5.4282792257030249e-09 0.0000000000000000e+00  -6.3121569668006345e-10 5.2062759897782032e-09 0.0000000000000000e+00  -9.6192071808239870e-10 5.0024047558583262e-09 0.0000000000000000e+00  -1.3484156961562650e-09 4.6781139527049159e-09 0.0000000000000000e+00  -1.7139986093299418e-09 4.2334246708773590e-09 0.0000000000000000e+00  -2.0359349055846590e-09 3.6810207720186661e-09 0.0000000000000000e+00  -2.3043257889336522e-09 3.0371495560015964e-09 0.0000000000000000e+00  -2.5135458032232513e-09 2.3198529084703912e-09 0.0000000000000000e+00  -2.6602278035777234e-09 1.5481463797699006e-09 0.0000000000000000e+00  -2.7425400545894908e-09 7.4150685571489251e-10 0.0000000000000000e+00  -2.7597683383201421e-09 -8.0420592009759488e-11 0.0000000000000000e+00  -2.7120694200780077e-09 -8.9795584560515176e-10 0.0000000000000000e+00  -2.6004051405855177e-09 -1.6914394323857719e-09 0.0000000000000000e+00  -2.4266631890733190e-09 -2.4413090918936658e-09 0.0000000000000000e+00  -2.1939469179716073e-09 -3.1282920312543200e-09 0.0000000000000000e+00  -1.9070317458535966e-09 -3.7337836563924346e-09 0.0000000000000000e+00  -1.5731839782185060e-09 -4.2404429392395242e-09 0.0000000000000000e+00  -1.2045040881841474e-09 -4.6329852639845349e-09 0.0000000000000000e+00  -8.2709222602218665e-10 -4.8988825645675443e-09 0.0000000000000000e+00  -5.2352225208383170e-10 -5.0284523518234062e-09 0.0000000000000000e+00  -5.4586386964815933e-10 -4.8475695576921650e-09 0.0000000000000000e+00  -7.3740291633414019e-10 5.8589661658360367e-09 0.0000000000000000e+00  -6.3534409583395682e-10 5.6410698540175044e-09 0.0000000000000000e+00  -9.3747265444340444e-10 5.4185670174888238e-09 0.0000000000000000e+00  -1.3033510257899626e-09 5.0632946269891316e-09 0.0000000000000000e+00  -1.6492646019882526e-09 4.5771989980439503e-09 0.0000000000000000e+00  -1.95155